 Entering Gaussian System, Link 0=g09
 Input=LB04-IV.com
 Output=LB04-IV.log
 Initial command:
 /home/Programs/G09/g09/l1.exe "/storage/users/joanna/Gau-4016.inp" -scrdir="/storage/users/joanna/"
 Entering Link 1 = /home/Programs/G09/g09/l1.exe PID=      4017.
  
 Copyright (c) 1988,1990,1992,1993,1995,1998,2003,2009,2013,
            Gaussian, Inc.  All Rights Reserved.
  
 This is part of the Gaussian(R) 09 program.  It is based on
 the Gaussian(R) 03 system (copyright 2003, Gaussian, Inc.),
 the Gaussian(R) 98 system (copyright 1998, Gaussian, Inc.),
 the Gaussian(R) 94 system (copyright 1995, Gaussian, Inc.),
 the Gaussian 92(TM) system (copyright 1992, Gaussian, Inc.),
 the Gaussian 90(TM) system (copyright 1990, Gaussian, Inc.),
 the Gaussian 88(TM) system (copyright 1988, Gaussian, Inc.),
 the Gaussian 86(TM) system (copyright 1986, Carnegie Mellon
 University), and the Gaussian 82(TM) system (copyright 1983,
 Carnegie Mellon University). Gaussian is a federally registered
 trademark of Gaussian, Inc.
  
 This software contains proprietary and confidential information,
 including trade secrets, belonging to Gaussian, Inc.
  
 This software is provided under written license and may be
 used, copied, transmitted, or stored only in accord with that
 written license.
  
 The following legend is applicable only to US Government
 contracts under FAR:
  
                    RESTRICTED RIGHTS LEGEND
  
 Use, reproduction and disclosure by the US Government is
 subject to restrictions as set forth in subparagraphs (a)
 and (c) of the Commercial Computer Software - Restricted
 Rights clause in FAR 52.227-19.
  
 Gaussian, Inc.
 340 Quinnipiac St., Bldg. 40, Wallingford CT 06492
  
  
 ---------------------------------------------------------------
 Warning -- This program may not be used in any manner that
 competes with the business of Gaussian, Inc. or will provide
 assistance to any competitor of Gaussian, Inc.  The licensee
 of this program is prohibited from giving any competitor of
 Gaussian, Inc. access to this program.  By using this program,
 the user acknowledges that Gaussian, Inc. is engaged in the
 business of creating and licensing software in the field of
 computational chemistry and represents and warrants to the
 licensee that it is not a competitor of Gaussian, Inc. and that
 it will not use this program in any manner prohibited above.
 ---------------------------------------------------------------
  

 Cite this work as:
 Gaussian 09, Revision D.01,
 M. J. Frisch, G. W. Trucks, H. B. Schlegel, G. E. Scuseria, 
 M. A. Robb, J. R. Cheeseman, G. Scalmani, V. Barone, B. Mennucci, 
 G. A. Petersson, H. Nakatsuji, M. Caricato, X. Li, H. P. Hratchian, 
 A. F. Izmaylov, J. Bloino, G. Zheng, J. L. Sonnenberg, M. Hada, 
 M. Ehara, K. Toyota, R. Fukuda, J. Hasegawa, M. Ishida, T. Nakajima, 
 Y. Honda, O. Kitao, H. Nakai, T. Vreven, J. A. Montgomery, Jr., 
 J. E. Peralta, F. Ogliaro, M. Bearpark, J. J. Heyd, E. Brothers, 
 K. N. Kudin, V. N. Staroverov, T. Keith, R. Kobayashi, J. Normand, 
 K. Raghavachari, A. Rendell, J. C. Burant, S. S. Iyengar, J. Tomasi, 
 M. Cossi, N. Rega, J. M. Millam, M. Klene, J. E. Knox, J. B. Cross, 
 V. Bakken, C. Adamo, J. Jaramillo, R. Gomperts, R. E. Stratmann, 
 O. Yazyev, A. J. Austin, R. Cammi, C. Pomelli, J. W. Ochterski, 
 R. L. Martin, K. Morokuma, V. G. Zakrzewski, G. A. Voth, 
 P. Salvador, J. J. Dannenberg, S. Dapprich, A. D. Daniels, 
 O. Farkas, J. B. Foresman, J. V. Ortiz, J. Cioslowski, 
 and D. J. Fox, Gaussian, Inc., Wallingford CT, 2013.
 
 ******************************************
 Gaussian 09:  EM64L-G09RevD.01 24-Apr-2013
                22-Aug-2018 
 ******************************************
 %chk=LB04-IV.chk
 --------------------------------------------------------
 # opt freq b3lyp/6-311++g(d,p) scrf=(pcm, solvent=water)
 --------------------------------------------------------
 1/14=-1,18=20,19=15,26=3,38=1/1,3;
 2/9=110,12=2,17=6,18=5,40=1/2;
 3/5=4,6=6,7=1111,11=2,16=1,25=1,30=1,70=2201,71=1,72=1,74=-5/1,2,3;
 4//1;
 5/5=2,38=5,53=1/2;
 6/7=2,8=2,9=2,10=2,28=1/1;
 7//1,2,3,16;
 1/14=-1,18=20,19=15,26=3/3(2);
 2/9=110/2;
 99//99;
 2/9=110/2;
 3/5=4,6=6,7=1111,11=2,16=1,25=1,30=1,70=2205,71=1,72=1,74=-5/1,2,3;
 4/5=5,16=3,69=1/1;
 5/5=2,38=5,53=1/2;
 7//1,2,3,16;
 1/14=-1,18=20,19=15,26=3/3(-5);
 2/9=110/2;
 6/7=2,8=2,9=2,10=2,19=2,28=1/1;
 99/9=1/99;
 ----------------
 Title LB04-neutr
 ----------------
 Symbolic Z-matrix:
 Charge =  0 Multiplicity = 1
 C                    -0.14685   1.94839  -1.29916 
 C                    -1.03927   2.33165  -0.28497 
 C                    -0.85527   1.85309   1.01148 
 C                     0.20263   1.00294   1.30082 
 C                     1.10519   0.60958   0.2968 
 C                     0.90914   1.09963  -1.00978 
 C                     2.2346   -0.27944   0.53562 
 C                     2.5931   -0.85141   1.70336 
 C                     3.74738  -1.73569   1.8558 
 O                     4.07396  -2.25447   2.91106 
 O                     4.45123  -1.94775   0.71599 
 H                     0.32201   0.6463    2.31591 
 H                     2.84571  -0.49493  -0.33582 
 H                     2.04198  -0.69224   2.62176 
 H                     5.18614  -2.54195   0.93059 
 H                     1.59272   0.81     -1.80149 
 H                    -0.35633   2.35791  -2.26525 
 O                    -2.1337    3.20711  -0.56907 
 H                    -2.12098   3.44463  -1.49913 
 O                    -1.77518   2.25537   2.02972 
 H                    -2.43665   2.83931   1.65148 
 

 GradGradGradGradGradGradGradGradGradGradGradGradGradGradGradGradGradGrad
 Berny optimization.
 Initialization pass.
                           ----------------------------
                           !    Initial Parameters    !
                           ! (Angstroms and Degrees)  !
 --------------------------                            --------------------------
 ! Name  Definition              Value          Derivative Info.                !
 --------------------------------------------------------------------------------
 ! R1    R(1,2)                  1.4042         estimate D2E/DX2                !
 ! R2    R(1,6)                  1.3854         estimate D2E/DX2                !
 ! R3    R(1,17)                 1.07           estimate D2E/DX2                !
 ! R4    R(2,3)                  1.3941         estimate D2E/DX2                !
 ! R5    R(2,18)                 1.43           estimate D2E/DX2                !
 ! R6    R(3,4)                  1.3877         estimate D2E/DX2                !
 ! R7    R(3,20)                 1.43           estimate D2E/DX2                !
 ! R8    R(4,5)                  1.4062         estimate D2E/DX2                !
 ! R9    R(4,12)                 1.0825         estimate D2E/DX2                !
 ! R10   R(5,6)                  1.4092         estimate D2E/DX2                !
 ! R11   R(5,7)                  1.457          estimate D2E/DX2                !
 ! R12   R(6,16)                 1.0853         estimate D2E/DX2                !
 ! R13   R(7,8)                  1.3488         estimate D2E/DX2                !
 ! R14   R(7,13)                 1.086          estimate D2E/DX2                !
 ! R15   R(8,9)                  1.462          estimate D2E/DX2                !
 ! R16   R(8,14)                 1.0828         estimate D2E/DX2                !
 ! R17   R(9,10)                 1.2204         estimate D2E/DX2                !
 ! R18   R(9,11)                 1.3563         estimate D2E/DX2                !
 ! R19   R(11,15)                0.9691         estimate D2E/DX2                !
 ! R20   R(18,19)                0.96           estimate D2E/DX2                !
 ! R21   R(20,21)                0.96           estimate D2E/DX2                !
 ! A1    A(2,1,6)              120.0512         estimate D2E/DX2                !
 ! A2    A(2,1,17)             115.0376         estimate D2E/DX2                !
 ! A3    A(6,1,17)             124.9112         estimate D2E/DX2                !
 ! A4    A(1,2,3)              119.6073         estimate D2E/DX2                !
 ! A5    A(1,2,18)             120.6633         estimate D2E/DX2                !
 ! A6    A(3,2,18)             119.7294         estimate D2E/DX2                !
 ! A7    A(2,3,4)              120.3191         estimate D2E/DX2                !
 ! A8    A(2,3,20)             118.7306         estimate D2E/DX2                !
 ! A9    A(4,3,20)             120.9503         estimate D2E/DX2                !
 ! A10   A(3,4,5)              120.7849         estimate D2E/DX2                !
 ! A11   A(3,4,12)             118.7791         estimate D2E/DX2                !
 ! A12   A(5,4,12)             120.436          estimate D2E/DX2                !
 ! A13   A(4,5,6)              118.3879         estimate D2E/DX2                !
 ! A14   A(4,5,7)              123.4476         estimate D2E/DX2                !
 ! A15   A(6,5,7)              118.1645         estimate D2E/DX2                !
 ! A16   A(1,6,5)              120.8495         estimate D2E/DX2                !
 ! A17   A(1,6,16)             119.42           estimate D2E/DX2                !
 ! A18   A(5,6,16)             119.7305         estimate D2E/DX2                !
 ! A19   A(5,7,8)              127.349          estimate D2E/DX2                !
 ! A20   A(5,7,13)             115.1982         estimate D2E/DX2                !
 ! A21   A(8,7,13)             117.4528         estimate D2E/DX2                !
 ! A22   A(7,8,9)              123.8204         estimate D2E/DX2                !
 ! A23   A(7,8,14)             122.4575         estimate D2E/DX2                !
 ! A24   A(9,8,14)             113.7221         estimate D2E/DX2                !
 ! A25   A(8,9,10)             123.9546         estimate D2E/DX2                !
 ! A26   A(8,9,11)             114.6233         estimate D2E/DX2                !
 ! A27   A(10,9,11)            121.422          estimate D2E/DX2                !
 ! A28   A(9,11,15)            107.6555         estimate D2E/DX2                !
 ! A29   A(2,18,19)            109.5            estimate D2E/DX2                !
 ! A30   A(3,20,21)            109.5            estimate D2E/DX2                !
 ! D1    D(6,1,2,3)              0.0            estimate D2E/DX2                !
 ! D2    D(6,1,2,18)           180.0            estimate D2E/DX2                !
 ! D3    D(17,1,2,3)           180.0            estimate D2E/DX2                !
 ! D4    D(17,1,2,18)            0.0            estimate D2E/DX2                !
 ! D5    D(2,1,6,5)              0.0            estimate D2E/DX2                !
 ! D6    D(2,1,6,16)           180.0            estimate D2E/DX2                !
 ! D7    D(17,1,6,5)           180.0            estimate D2E/DX2                !
 ! D8    D(17,1,6,16)            0.0            estimate D2E/DX2                !
 ! D9    D(1,2,3,4)              0.0            estimate D2E/DX2                !
 ! D10   D(1,2,3,20)           180.0            estimate D2E/DX2                !
 ! D11   D(18,2,3,4)           180.0            estimate D2E/DX2                !
 ! D12   D(18,2,3,20)            0.0            estimate D2E/DX2                !
 ! D13   D(1,2,18,19)            0.0            estimate D2E/DX2                !
 ! D14   D(3,2,18,19)          180.0            estimate D2E/DX2                !
 ! D15   D(2,3,4,5)              0.0            estimate D2E/DX2                !
 ! D16   D(2,3,4,12)           180.0            estimate D2E/DX2                !
 ! D17   D(20,3,4,5)           180.0            estimate D2E/DX2                !
 ! D18   D(20,3,4,12)            0.0            estimate D2E/DX2                !
 ! D19   D(2,3,20,21)            0.0            estimate D2E/DX2                !
 ! D20   D(4,3,20,21)          180.0            estimate D2E/DX2                !
 ! D21   D(3,4,5,6)              0.0            estimate D2E/DX2                !
 ! D22   D(3,4,5,7)            180.0            estimate D2E/DX2                !
 ! D23   D(12,4,5,6)           180.0            estimate D2E/DX2                !
 ! D24   D(12,4,5,7)             0.0            estimate D2E/DX2                !
 ! D25   D(4,5,6,1)              0.0            estimate D2E/DX2                !
 ! D26   D(4,5,6,16)           180.0            estimate D2E/DX2                !
 ! D27   D(7,5,6,1)            180.0            estimate D2E/DX2                !
 ! D28   D(7,5,6,16)             0.0            estimate D2E/DX2                !
 ! D29   D(4,5,7,8)              0.0            estimate D2E/DX2                !
 ! D30   D(4,5,7,13)           180.0            estimate D2E/DX2                !
 ! D31   D(6,5,7,8)            180.0            estimate D2E/DX2                !
 ! D32   D(6,5,7,13)             0.0            estimate D2E/DX2                !
 ! D33   D(5,7,8,9)            180.0            estimate D2E/DX2                !
 ! D34   D(5,7,8,14)             0.0            estimate D2E/DX2                !
 ! D35   D(13,7,8,9)             0.0            estimate D2E/DX2                !
 ! D36   D(13,7,8,14)          180.0            estimate D2E/DX2                !
 ! D37   D(7,8,9,10)           180.0            estimate D2E/DX2                !
 ! D38   D(7,8,9,11)             0.0            estimate D2E/DX2                !
 ! D39   D(14,8,9,10)            0.0            estimate D2E/DX2                !
 ! D40   D(14,8,9,11)          180.0            estimate D2E/DX2                !
 ! D41   D(8,9,11,15)          180.0            estimate D2E/DX2                !
 ! D42   D(10,9,11,15)           0.0            estimate D2E/DX2                !
 --------------------------------------------------------------------------------
 Trust Radius=3.00D-01 FncErr=1.00D-07 GrdErr=1.00D-06
 Number of steps in this run=    103 maximum allowed number of steps=    126.
 GradGradGradGradGradGradGradGradGradGradGradGradGradGradGradGradGradGrad

                          Input orientation:                          
 ---------------------------------------------------------------------
 Center     Atomic      Atomic             Coordinates (Angstroms)
 Number     Number       Type             X           Y           Z
 ---------------------------------------------------------------------
      1          6           0       -0.146846    1.948392   -1.299162
      2          6           0       -1.039274    2.331653   -0.284972
      3          6           0       -0.855269    1.853094    1.011476
      4          6           0        0.202630    1.002943    1.300821
      5          6           0        1.105190    0.609577    0.296802
      6          6           0        0.909140    1.099631   -1.009782
      7          6           0        2.234597   -0.279440    0.535617
      8          6           0        2.593102   -0.851410    1.703359
      9          6           0        3.747384   -1.735690    1.855798
     10          8           0        4.073965   -2.254473    2.911061
     11          8           0        4.451227   -1.947750    0.715985
     12          1           0        0.322006    0.646296    2.315911
     13          1           0        2.845705   -0.494928   -0.335819
     14          1           0        2.041980   -0.692239    2.621763
     15          1           0        5.186142   -2.541953    0.930592
     16          1           0        1.592724    0.810001   -1.801486
     17          1           0       -0.356327    2.357905   -2.265245
     18          8           0       -2.133698    3.207112   -0.569066
     19          1           0       -2.120982    3.444632   -1.499132
     20          8           0       -1.775183    2.255371    2.029725
     21          1           0       -2.436654    2.839310    1.651476
 ---------------------------------------------------------------------
                    Distance matrix (angstroms):
                    1          2          3          4          5
     1  C    0.000000
     2  C    1.404243   0.000000
     3  C    2.418676   1.394150   0.000000
     4  C    2.788533   2.412992   1.387669   0.000000
     5  C    2.430457   2.811180   2.429093   1.406203   0.000000
     6  C    1.385367   2.416515   2.786813   2.418137   1.409166
     7  C    3.741780   4.267247   3.784364   2.521693   1.457032
     8  C    4.935721   5.222979   4.436700   3.052052   2.515307
     9  C    6.220230   6.636134   5.897174   4.513690   3.861598
    10  O    7.294196   7.575776   6.691627   5.309508   4.883724
    11  O    6.354763   7.032838   6.533959   5.205689   4.232209
    12  H    3.870920   3.384981   2.131639   1.082523   2.165993
    13  H    3.981608   4.804707   4.585370   3.450805   2.156277
    14  H    5.209371   5.204532   4.179210   2.828735   2.824490
    15  H    7.319546   7.999089   7.471386   6.126887   5.194997
    16  H    2.138777   3.397448   3.872140   3.404981   2.163485
    17  H    1.070000   2.094896   3.352712   3.855539   3.428814
    18  O    2.462721   1.430000   2.442511   3.716619   4.241145
    19  H    2.485143   1.970533   3.230817   4.381866   4.655223
    20  O    3.718495   2.430062   1.430000   2.451860   3.742754
    21  H    3.839690   2.441355   1.970533   3.234350   4.399035
                    6          7          8          9         10
     6  C    0.000000
     7  C    2.459050   0.000000
     8  C    3.742115   1.348814   0.000000
     9  C    4.930134   2.480337   1.462038   0.000000
    10  O    6.053027   3.595381   2.370671   1.220398   0.000000
    11  O    4.981082   2.780151   2.372656   1.356295   2.248280
    12  H    3.407414   2.772082   2.788588   4.197473   4.779734
    13  H    2.597523   1.085951   2.085458   2.675015   3.891896
    14  H    4.205026   2.135301   1.082837   2.141003   2.579385
    15  H    5.942973   3.739865   3.190448   1.891055   2.289506
    16  H    1.085343   2.657241   4.005618   4.949629   6.144562
    17  H    2.181937   4.638243   5.894799   7.112030   8.227737
    18  O    3.727541   5.697224   6.631602   8.055953   8.970800
    19  H    3.862659   6.081117   7.136842   8.516397   9.502998
    20  O    4.216625   4.973526   5.370337   6.815979   7.438278
    21  H    4.615529   5.726458   6.238794   7.695109   8.361897
                   11         12         13         14         15
    11  O    0.000000
    12  H    5.132183   0.000000
    13  H    2.407215   3.834465   0.000000
    14  H    3.318548   2.200803   3.071188   0.000000
    15  H    0.969140   5.978616   3.357343   4.020852   0.000000
    16  H    4.702540   4.312131   2.328299   4.692940   5.622498
    17  H    7.109077   4.937280   4.702589   6.240040   8.058594
    18  O    8.460803   4.572893   6.209183   6.543899   9.427659
    19  H    8.785127   5.324793   6.445263   7.171174   9.753810
    20  O    7.626291   2.658802   5.874738   4.858976   8.525400
    21  H    8.440022   3.586222   6.555135   5.785452   9.358668
                   16         17         18         19         20
    16  H    0.000000
    17  H    2.531774   0.000000
    18  O    4.599045   2.599466   0.000000
    19  H    4.563367   2.209505   0.960000   0.000000
    20  O    5.301893   4.524426   2.790709   3.739886   0.000000
    21  H    5.681278   4.460965   2.271094   3.223723   0.960000
                   21
    21  H    0.000000
 Stoichiometry    C9H8O4
 Framework group  CS[SG(C9H8O4)]
 Deg. of freedom    39
 Full point group                 CS      NOp   2
 Largest Abelian subgroup         CS      NOp   2
 Largest concise Abelian subgroup C1      NOp   1
                         Standard orientation:                         
 ---------------------------------------------------------------------
 Center     Atomic      Atomic             Coordinates (Angstroms)
 Number     Number       Type             X           Y           Z
 ---------------------------------------------------------------------
      1          6           0       -2.637980   -0.634206    0.000000
      2          6           0       -2.147443   -1.949984    0.000000
      3          6           0       -0.771077   -2.171953    0.000000
      4          6           0        0.111224   -1.100893    0.000000
      5          6           0       -0.363601    0.222719    0.000000
      6          6           0       -1.756726    0.434735    0.000000
      7          6           0        0.509557    1.389140    0.000000
      8          6           0        1.858313    1.401647    0.000000
      9          6           0        2.660773    2.623781    0.000000
     10          8           0        3.881089    2.637956    0.000000
     11          8           0        1.940290    3.772886    0.000000
     12          1           0        1.174920   -1.301906    0.000000
     13          1           0        0.000000    2.348119    0.000000
     14          1           0        2.447891    0.493388    0.000000
     15          1           0        2.566566    4.512488    0.000000
     16          1           0       -2.147044    1.447464    0.000000
     17          1           0       -3.704546   -0.548549    0.000000
     18          8           0       -3.045250   -3.063017    0.000000
     19          1           0       -3.950795   -2.744289    0.000000
     20          8           0       -0.292104   -3.519352    0.000000
     21          1           0       -1.037433   -4.124401    0.000000
 ---------------------------------------------------------------------
 Rotational constants (GHZ):      2.2479666      0.3187131      0.2791374
 Standard basis: 6-311++G(d,p) (5D, 7F)
 There are   269 symmetry adapted cartesian basis functions of A'  symmetry.
 There are    86 symmetry adapted cartesian basis functions of A"  symmetry.
 There are   256 symmetry adapted basis functions of A'  symmetry.
 There are    86 symmetry adapted basis functions of A"  symmetry.
   342 basis functions,   540 primitive gaussians,   355 cartesian basis functions
    47 alpha electrons       47 beta electrons
       nuclear repulsion energy       716.0590686408 Hartrees.
 NAtoms=   21 NActive=   21 NUniq=   21 SFac= 1.00D+00 NAtFMM=   60 NAOKFM=F Big=F
 Integral buffers will be    131072 words long.
 Raffenetti 2 integral format.
 Two-electron integral symmetry is turned on.
 ------------------------------------------------------------------------------
 Polarizable Continuum Model (PCM)
 =================================
 Model                : PCM (using non-symmetric T matrix).
 Atomic radii         : UFF (Universal Force Field).
 Polarization charges : Total charges.
 Charge compensation  : None.
 Solution method      : On-the-fly selection.
 Cavity type          : Scaled VdW (van der Waals Surface) (Alpha=1.100).
 Cavity algorithm     : GePol (No added spheres)
                        Default sphere list used, NSphG=   21.
                        Lebedev-Laikov grids with approx.  5.0 points / Ang**2.
                        Smoothing algorithm: Karplus/York (Gamma=1.0000).
                        Polarization charges: spherical gaussians, with
                                              point-specific exponents (IZeta= 3).
                        Self-potential: point-specific (ISelfS= 7).
                        Self-field    : sphere-specific E.n sum rule (ISelfD= 2).
 1st derivatives      : Analytical E(r).r(x)/FMM algorithm (CHGder, D1EAlg=3).
                        Cavity 1st derivative terms included.
 Solvent              : Water, Eps=  78.355300 Eps(inf)=   1.777849
 ------------------------------------------------------------------------------
 One-electron integrals computed using PRISM.
 NBasis=   342 RedAO= T EigKep=  1.32D-06  NBF=   256    86
 NBsUse=   340 1.00D-06 EigRej=  8.76D-07 NBFU=   254    86
 ExpMin= 3.60D-02 ExpMax= 8.59D+03 ExpMxC= 1.30D+03 IAcc=3 IRadAn=         5 AccDes= 0.00D+00
 Harris functional with IExCor=  402 and IRadAn=       5 diagonalized for initial guess.
 HarFok:  IExCor=  402 AccDes= 0.00D+00 IRadAn=         5 IDoV= 1 UseB2=F ITyADJ=14
 ICtDFT=  3500011 ScaDFX=  1.000000  1.000000  1.000000  1.000000
 FoFCou: FMM=F IPFlag=           0 FMFlag=      100000 FMFlg1=           0
         NFxFlg=           0 DoJE=T BraDBF=F KetDBF=T FulRan=T
         wScrn=  0.000000 ICntrl=     500 IOpCl=  0 I1Cent=   200000004 NGrid=           0
         NMat0=    1 NMatS0=      1 NMatT0=    0 NMatD0=    1 NMtDS0=    0 NMtDT0=    0
 Petite list used in FoFCou.
 Initial guess orbital symmetries:
       Occupied  (A') (A') (A') (A') (A') (A') (A') (A') (A') (A')
                 (A') (A') (A') (A') (A') (A') (A') (A') (A') (A')
                 (A') (A') (A') (A') (A') (A') (A') (A') (A') (A')
                 (A') (A') (A') (A") (A') (A") (A') (A') (A') (A')
                 (A") (A") (A") (A") (A') (A") (A")
       Virtual   (A") (A") (A") (A') (A') (A") (A') (A') (A') (A')
                 (A") (A') (A') (A') (A") (A') (A') (A") (A') (A")
                 (A') (A') (A') (A") (A') (A') (A') (A') (A") (A')
                 (A') (A') (A') (A") (A') (A') (A") (A") (A') (A')
                 (A') (A') (A") (A') (A') (A') (A') (A') (A') (A')
                 (A') (A') (A") (A') (A') (A") (A') (A') (A') (A")
                 (A') (A') (A') (A') (A') (A') (A") (A') (A') (A')
                 (A') (A') (A') (A') (A') (A') (A') (A') (A') (A')
                 (A') (A') (A') (A') (A") (A') (A') (A") (A") (A')
                 (A") (A') (A") (A') (A") (A') (A') (A') (A") (A')
                 (A") (A') (A') (A") (A') (A') (A') (A') (A') (A')
                 (A') (A') (A') (A') (A') (A') (A') (A') (A') (A")
                 (A') (A") (A') (A') (A") (A') (A") (A') (A") (A")
                 (A') (A") (A') (A") (A") (A') (A') (A") (A') (A')
                 (A") (A') (A") (A') (A') (A') (A") (A') (A') (A')
                 (A") (A") (A') (A") (A') (A') (A") (A') (A') (A')
                 (A") (A") (A') (A') (A') (A') (A') (A') (A") (A")
                 (A') (A') (A') (A") (A') (A') (A") (A') (A") (A')
                 (A") (A') (A') (A') (A") (A') (A') (A') (A') (A")
                 (A') (A') (A") (A') (A') (A') (A') (A') (A") (A')
                 (A') (A") (A') (A') (A') (A') (A") (A') (A") (A')
                 (A') (A") (A') (A') (A") (A') (A') (A") (A') (A')
                 (A") (A') (A') (A") (A') (A') (A") (A') (A") (A')
                 (A') (A') (A") (A") (A") (A") (A') (A") (A') (A")
                 (A') (A") (A') (A') (A') (A") (A') (A') (A') (A')
                 (A') (A') (A') (A') (A') (A') (A') (A') (A') (A')
                 (A') (A') (A') (A') (A') (A') (A') (A') (A") (A")
                 (A") (A") (A') (A') (A') (A') (A') (A') (A') (A')
                 (A') (A') (A') (A') (A') (A') (A') (A') (A') (A')
                 (A') (A') (A')
 The electronic state of the initial guess is 1-A'.
 Requested convergence on RMS density matrix=1.00D-08 within 128 cycles.
 Requested convergence on MAX density matrix=1.00D-06.
 Requested convergence on             energy=1.00D-06.
 No special actions if energy rises.
 Inv3:  Mode=1 IEnd=    10090668.
 Iteration    1 A*A^-1 deviation from unit magnitude is 7.77D-15 for    786.
 Iteration    1 A*A^-1 deviation from orthogonality  is 4.91D-15 for   1791    480.
 Iteration    1 A^-1*A deviation from unit magnitude is 6.88D-15 for    368.
 Iteration    1 A^-1*A deviation from orthogonality  is 2.70D-11 for   1153   1137.
 Error on total polarization charges =  0.01492
 SCF Done:  E(RB3LYP) =  -648.875821794     A.U. after   15 cycles
            NFock= 15  Conv=0.21D-08     -V/T= 2.0042

 **********************************************************************

            Population analysis using the SCF density.

 **********************************************************************

 Orbital symmetries:
       Occupied  (A') (A') (A') (A') (A') (A') (A') (A') (A') (A')
                 (A') (A') (A') (A') (A') (A') (A') (A') (A') (A')
                 (A') (A') (A') (A') (A') (A') (A') (A') (A') (A')
                 (A') (A") (A') (A") (A') (A') (A') (A') (A') (A")
                 (A") (A') (A") (A") (A') (A") (A")
       Virtual   (A") (A") (A') (A') (A") (A') (A') (A') (A') (A')
                 (A") (A') (A") (A") (A') (A') (A') (A") (A') (A")
                 (A') (A') (A') (A') (A") (A') (A') (A') (A") (A')
                 (A') (A") (A") (A') (A") (A') (A') (A') (A') (A')
                 (A") (A') (A') (A') (A') (A') (A') (A') (A") (A')
                 (A') (A") (A') (A') (A') (A") (A') (A') (A') (A')
                 (A') (A") (A') (A') (A') (A') (A') (A') (A') (A')
                 (A') (A') (A') (A') (A') (A') (A') (A') (A') (A')
                 (A') (A') (A") (A') (A') (A") (A') (A") (A') (A")
                 (A') (A') (A") (A') (A") (A') (A') (A') (A") (A")
                 (A') (A') (A') (A") (A') (A') (A') (A') (A') (A')
                 (A') (A') (A') (A') (A') (A') (A') (A') (A') (A')
                 (A') (A") (A") (A') (A') (A') (A") (A") (A') (A")
                 (A") (A') (A") (A") (A') (A") (A') (A') (A") (A')
                 (A") (A') (A") (A') (A') (A") (A') (A') (A') (A")
                 (A') (A") (A") (A') (A") (A') (A') (A') (A') (A")
                 (A') (A') (A") (A') (A') (A') (A') (A') (A") (A")
                 (A') (A') (A') (A") (A') (A') (A") (A') (A') (A")
                 (A") (A') (A') (A') (A') (A") (A') (A') (A') (A")
                 (A') (A') (A") (A') (A') (A') (A') (A") (A') (A')
                 (A') (A") (A') (A') (A') (A') (A') (A') (A") (A')
                 (A") (A') (A') (A") (A') (A') (A") (A') (A') (A")
                 (A') (A') (A") (A') (A") (A') (A") (A') (A") (A')
                 (A') (A') (A") (A") (A") (A") (A') (A") (A") (A")
                 (A') (A') (A') (A') (A') (A") (A') (A') (A') (A')
                 (A') (A') (A') (A') (A') (A') (A') (A') (A') (A')
                 (A') (A') (A') (A') (A') (A') (A') (A') (A") (A")
                 (A") (A") (A') (A') (A') (A') (A') (A') (A') (A')
                 (A') (A') (A') (A') (A') (A') (A') (A') (A') (A')
                 (A') (A') (A')
 The electronic state is 1-A'.
 Alpha  occ. eigenvalues --  -19.17762 -19.17672 -19.16503 -19.12405 -10.31842
 Alpha  occ. eigenvalues --  -10.26276 -10.26014 -10.21162 -10.20694 -10.19921
 Alpha  occ. eigenvalues --  -10.19689 -10.19631 -10.19380  -1.11884  -1.07568
 Alpha  occ. eigenvalues --   -1.05120  -1.02800  -0.88473  -0.82396  -0.77198
 Alpha  occ. eigenvalues --   -0.76424  -0.68402  -0.64740  -0.62518  -0.60283
 Alpha  occ. eigenvalues --   -0.56793  -0.54659  -0.52015  -0.50277  -0.48938
 Alpha  occ. eigenvalues --   -0.48085  -0.46254  -0.45693  -0.44330  -0.44015
 Alpha  occ. eigenvalues --   -0.41990  -0.40779  -0.39491  -0.38691  -0.38158
 Alpha  occ. eigenvalues --   -0.37057  -0.36721  -0.33880  -0.30777  -0.29826
 Alpha  occ. eigenvalues --   -0.26353  -0.23804
 Alpha virt. eigenvalues --   -0.08675  -0.02849  -0.01418  -0.00545   0.00153
 Alpha virt. eigenvalues --    0.00636   0.01436   0.02128   0.04096   0.04626
 Alpha virt. eigenvalues --    0.04793   0.05007   0.05243   0.06719   0.06890
 Alpha virt. eigenvalues --    0.07491   0.07986   0.08856   0.09387   0.09433
 Alpha virt. eigenvalues --    0.09757   0.10602   0.11017   0.11516   0.11665
 Alpha virt. eigenvalues --    0.11938   0.12482   0.13134   0.13584   0.14278
 Alpha virt. eigenvalues --    0.14718   0.15357   0.15929   0.15983   0.16361
 Alpha virt. eigenvalues --    0.16516   0.16901   0.17299   0.17900   0.18348
 Alpha virt. eigenvalues --    0.18587   0.19531   0.20442   0.20968   0.21387
 Alpha virt. eigenvalues --    0.21730   0.22713   0.23447   0.23474   0.23747
 Alpha virt. eigenvalues --    0.24105   0.25437   0.25711   0.26524   0.27211
 Alpha virt. eigenvalues --    0.27351   0.28011   0.28547   0.29066   0.29616
 Alpha virt. eigenvalues --    0.29987   0.31033   0.31074   0.31356   0.31972
 Alpha virt. eigenvalues --    0.32998   0.33677   0.33914   0.34760   0.35288
 Alpha virt. eigenvalues --    0.36671   0.37711   0.38250   0.39015   0.40275
 Alpha virt. eigenvalues --    0.41047   0.43340   0.44114   0.44833   0.45936
 Alpha virt. eigenvalues --    0.46708   0.50219   0.51307   0.51400   0.53093
 Alpha virt. eigenvalues --    0.53792   0.54781   0.55435   0.56387   0.56729
 Alpha virt. eigenvalues --    0.57391   0.58390   0.58650   0.60328   0.60629
 Alpha virt. eigenvalues --    0.61101   0.63153   0.64171   0.64194   0.64837
 Alpha virt. eigenvalues --    0.65287   0.66443   0.67838   0.69409   0.72081
 Alpha virt. eigenvalues --    0.73640   0.74119   0.76680   0.78517   0.80095
 Alpha virt. eigenvalues --    0.81186   0.84706   0.84948   0.85910   0.86524
 Alpha virt. eigenvalues --    0.88135   0.88545   0.89374   0.91443   0.92366
 Alpha virt. eigenvalues --    0.92781   0.95498   0.96744   0.96941   0.98826
 Alpha virt. eigenvalues --    1.01434   1.01561   1.02784   1.03596   1.05232
 Alpha virt. eigenvalues --    1.05994   1.07059   1.08008   1.09584   1.09990
 Alpha virt. eigenvalues --    1.11074   1.12643   1.14770   1.14995   1.17547
 Alpha virt. eigenvalues --    1.18231   1.19288   1.21220   1.23290   1.25089
 Alpha virt. eigenvalues --    1.26067   1.27140   1.29092   1.29760   1.39426
 Alpha virt. eigenvalues --    1.40303   1.41308   1.42890   1.46408   1.48068
 Alpha virt. eigenvalues --    1.48445   1.49725   1.50966   1.52453   1.55106
 Alpha virt. eigenvalues --    1.55639   1.57084   1.57681   1.58822   1.60029
 Alpha virt. eigenvalues --    1.61928   1.63631   1.65742   1.67503   1.70569
 Alpha virt. eigenvalues --    1.70662   1.72168   1.74837   1.75367   1.78351
 Alpha virt. eigenvalues --    1.80629   1.84320   1.84336   1.84979   1.86377
 Alpha virt. eigenvalues --    1.90114   1.91038   1.92598   1.93873   1.97401
 Alpha virt. eigenvalues --    1.97504   1.99555   2.03371   2.04071   2.05226
 Alpha virt. eigenvalues --    2.06215   2.07081   2.10322   2.11628   2.12103
 Alpha virt. eigenvalues --    2.12859   2.18695   2.26388   2.26458   2.29293
 Alpha virt. eigenvalues --    2.31927   2.33808   2.36144   2.39422   2.47005
 Alpha virt. eigenvalues --    2.51309   2.56181   2.57598   2.57948   2.58794
 Alpha virt. eigenvalues --    2.58920   2.61170   2.65161   2.68595   2.69733
 Alpha virt. eigenvalues --    2.70646   2.73487   2.73773   2.75440   2.76418
 Alpha virt. eigenvalues --    2.77039   2.79806   2.81680   2.83652   2.85901
 Alpha virt. eigenvalues --    2.88109   2.90450   2.91725   2.94374   2.94848
 Alpha virt. eigenvalues --    3.00032   3.02899   3.03756   3.04803   3.05684
 Alpha virt. eigenvalues --    3.06730   3.10401   3.12208   3.13691   3.16134
 Alpha virt. eigenvalues --    3.17857   3.19866   3.24247   3.28546   3.34452
 Alpha virt. eigenvalues --    3.34704   3.36366   3.38544   3.42640   3.51364
 Alpha virt. eigenvalues --    3.53476   3.57869   3.62129   3.64366   3.66751
 Alpha virt. eigenvalues --    3.70000   3.84169   3.89081   3.90698   3.93433
 Alpha virt. eigenvalues --    4.03880   4.07940   4.10738   4.13203   4.17840
 Alpha virt. eigenvalues --    4.22622   4.53241   4.82763   4.94523   4.95338
 Alpha virt. eigenvalues --    5.01770   5.02353   5.16782   5.37953   5.40780
 Alpha virt. eigenvalues --    5.43718   5.62623   5.66074   5.74323   5.84357
 Alpha virt. eigenvalues --   23.52067  23.75668  23.84385  23.89540  23.91850
 Alpha virt. eigenvalues --   23.99589  24.08048  24.15963  24.19192  49.86555
 Alpha virt. eigenvalues --   49.88018  49.94029  50.00940
          Condensed to atoms (all electrons):
               1          2          3          4          5          6
     1  C   12.431211  -0.989891  -3.279517   3.056368   0.713483  -6.465760
     2  C   -0.989891  13.875596  -2.665218  -5.353384  -0.729574   1.759898
     3  C   -3.279517  -2.665218  12.645818   1.457432  -1.871854   1.680778
     4  C    3.056368  -5.353384   1.457432  19.384152  -2.426040 -10.149715
     5  C    0.713483  -0.729574  -1.871854  -2.426040  12.598960  -1.563648
     6  C   -6.465760   1.759898   1.680778 -10.149715  -1.563648  23.793043
     7  C    0.891185  -0.225778  -1.273524   2.534348  -1.007943  -3.487873
     8  C   -0.993393   0.384492   0.206259  -1.816264  -0.760923   0.458215
     9  C    0.112567  -0.050136  -0.147490  -0.301297   0.048313  -0.114493
    10  O   -0.001065   0.000652   0.000918   0.023535   0.002055  -0.001223
    11  O    0.001474  -0.000418  -0.001894   0.025668   0.055261   0.008002
    12  H    0.149562  -0.302979  -0.023564   1.082694  -0.289570  -0.177937
    13  H    0.143308  -0.036517  -0.038238   0.263909  -0.105511  -0.392128
    14  H   -0.061867   0.069648   0.020400  -0.228601  -0.044770   0.054266
    15  H    0.002104  -0.000397  -0.001164  -0.006242  -0.001002   0.000570
    16  H   -0.226748   0.111013   0.079609  -0.187843  -0.133503   0.786788
    17  H    0.614793  -0.270188  -0.016105   0.096835   0.059666  -0.192604
    18  O    0.251410   0.679974  -0.797334  -0.164604   0.019568   0.034810
    19  H   -0.255051   0.089908   0.190056   0.021457  -0.000162  -0.031583
    20  O   -0.098657   0.052721   0.251957  -0.296187   0.107844   0.045584
    21  H   -0.022427  -0.302991   0.245655   0.119917  -0.030425   0.000561
               7          8          9         10         11         12
     1  C    0.891185  -0.993393   0.112567  -0.001065   0.001474   0.149562
     2  C   -0.225778   0.384492  -0.050136   0.000652  -0.000418  -0.302979
     3  C   -1.273524   0.206259  -0.147490   0.000918  -0.001894  -0.023564
     4  C    2.534348  -1.816264  -0.301297   0.023535   0.025668   1.082694
     5  C   -1.007943  -0.760923   0.048313   0.002055   0.055261  -0.289570
     6  C   -3.487873   0.458215  -0.114493  -0.001223   0.008002  -0.177937
     7  C   10.150676  -3.098083   0.774931   0.178690   0.335954   0.084204
     8  C   -3.098083  13.497857  -1.538418  -0.233126  -0.417893  -0.212390
     9  C    0.774931  -1.538418   6.681504   0.362000   0.077121  -0.006595
    10  O    0.178690  -0.233126   0.362000   8.204579  -0.114785   0.002488
    11  O    0.335954  -0.417893   0.077121  -0.114785   8.071919   0.001550
    12  H    0.084204  -0.212390  -0.006595   0.002488   0.001550   0.597870
    13  H    0.525030  -0.045619  -0.043135  -0.001895  -0.022890   0.009090
    14  H   -0.185457   0.820012  -0.137643  -0.033922  -0.002625  -0.032064
    15  H   -0.004087  -0.068810   0.101320  -0.016537   0.211886   0.000165
    16  H   -0.116353   0.038556  -0.012859   0.000245   0.003223  -0.004076
    17  H    0.030774  -0.004545   0.001125  -0.000022  -0.000001   0.005031
    18  O    0.002954  -0.001448   0.000022   0.000000   0.000000  -0.003405
    19  H    0.001115   0.000114   0.000008   0.000001   0.000001  -0.000626
    20  O    0.005160   0.016614   0.000099   0.000003  -0.000006  -0.059978
    21  H   -0.009585  -0.001861  -0.000128  -0.000001  -0.000003   0.011388
              13         14         15         16         17         18
     1  C    0.143308  -0.061867   0.002104  -0.226748   0.614793   0.251410
     2  C   -0.036517   0.069648  -0.000397   0.111013  -0.270188   0.679974
     3  C   -0.038238   0.020400  -0.001164   0.079609  -0.016105  -0.797334
     4  C    0.263909  -0.228601  -0.006242  -0.187843   0.096835  -0.164604
     5  C   -0.105511  -0.044770  -0.001002  -0.133503   0.059666   0.019568
     6  C   -0.392128   0.054266   0.000570   0.786788  -0.192604   0.034810
     7  C    0.525030  -0.185457  -0.004087  -0.116353   0.030774   0.002954
     8  C   -0.045619   0.820012  -0.068810   0.038556  -0.004545  -0.001448
     9  C   -0.043135  -0.137643   0.101320  -0.012859   0.001125   0.000022
    10  O   -0.001895  -0.033922  -0.016537   0.000245  -0.000022   0.000000
    11  O   -0.022890  -0.002625   0.211886   0.003223  -0.000001   0.000000
    12  H    0.009090  -0.032064   0.000165  -0.004076   0.005031  -0.003405
    13  H    0.515168   0.005078   0.007209  -0.014810   0.004337   0.000188
    14  H    0.005078   0.530758  -0.002680   0.001259  -0.000758   0.000126
    15  H    0.007209  -0.002680   0.458011  -0.000823   0.000032   0.000000
    16  H   -0.014810   0.001259  -0.000823   0.498969  -0.020472  -0.001804
    17  H    0.004337  -0.000758   0.000032  -0.020472   0.524845  -0.014646
    18  O    0.000188   0.000126   0.000000  -0.001804  -0.014646   8.041384
    19  H    0.000036   0.000039   0.000000   0.000579  -0.002709   0.257622
    20  O    0.000007   0.005157  -0.000001   0.000859  -0.002514   0.005988
    21  H   -0.000262  -0.000694  -0.000001   0.000546   0.000198   0.017756
              19         20         21
     1  C   -0.255051  -0.098657  -0.022427
     2  C    0.089908   0.052721  -0.302991
     3  C    0.190056   0.251957   0.245655
     4  C    0.021457  -0.296187   0.119917
     5  C   -0.000162   0.107844  -0.030425
     6  C   -0.031583   0.045584   0.000561
     7  C    0.001115   0.005160  -0.009585
     8  C    0.000114   0.016614  -0.001861
     9  C    0.000008   0.000099  -0.000128
    10  O    0.000001   0.000003  -0.000001
    11  O    0.000001  -0.000006  -0.000003
    12  H   -0.000626  -0.059978   0.011388
    13  H    0.000036   0.000007  -0.000262
    14  H    0.000039   0.005157  -0.000694
    15  H    0.000000  -0.000001  -0.000001
    16  H    0.000579   0.000859   0.000546
    17  H   -0.002709  -0.002514   0.000198
    18  O    0.257622   0.005988   0.017756
    19  H    0.416193   0.002140   0.000096
    20  O    0.002140   8.035328   0.240628
    21  H    0.000096   0.240628   0.426200
 Mulliken charges:
               1
     1  C    0.026911
     2  C   -0.096430
     3  C   -0.662980
     4  C   -1.136136
     5  C    1.359775
     6  C   -0.045549
     7  C   -0.106337
     8  C   -0.229345
     9  C    0.193184
    10  O   -0.372588
    11  O   -0.231545
    12  H    0.169142
    13  H    0.227645
    14  H    0.224339
    15  H    0.320446
    16  H    0.197647
    17  H    0.186930
    18  O   -0.328560
    19  H    0.310766
    20  O   -0.312748
    21  H    0.305432
 Sum of Mulliken charges =   0.00000
 Mulliken charges with hydrogens summed into heavy atoms:
               1
     1  C    0.213841
     2  C   -0.096430
     3  C   -0.662980
     4  C   -0.966993
     5  C    1.359775
     6  C    0.152097
     7  C    0.121308
     8  C   -0.005006
     9  C    0.193184
    10  O   -0.372588
    11  O    0.088902
    18  O   -0.017795
    20  O   -0.007316
 Electronic spatial extent (au):  <R**2>=           3583.9098
 Charge=              0.0000 electrons
 Dipole moment (field-independent basis, Debye):
    X=             -7.5756    Y=              0.1122    Z=              0.0000  Tot=              7.5764
 Quadrupole moment (field-independent basis, Debye-Ang):
   XX=            -74.3444   YY=            -70.5378   ZZ=            -79.1697
   XY=              0.8409   XZ=              0.0000   YZ=              0.0000
 Traceless Quadrupole moment (field-independent basis, Debye-Ang):
   XX=              0.3396   YY=              4.1462   ZZ=             -4.4858
   XY=              0.8409   XZ=              0.0000   YZ=              0.0000
 Octapole moment (field-independent basis, Debye-Ang**2):
  XXX=           -176.4570  YYY=             54.6204  ZZZ=              0.0000  XYY=            -10.9865
  XXY=            -67.0469  XXZ=              0.0000  XZZ=              5.6071  YZZ=              2.0751
  YYZ=              0.0000  XYZ=              0.0000
 Hexadecapole moment (field-independent basis, Debye-Ang**3):
 XXXX=          -2101.3448 YYYY=          -1979.0886 ZZZZ=            -84.8590 XXXY=           -846.4067
 XXXZ=              0.0000 YYYX=           -564.5464 YYYZ=              0.0000 ZZZX=              0.0000
 ZZZY=              0.0000 XXYY=           -700.1761 XXZZ=           -367.0514 YYZZ=           -423.9914
 XXYZ=              0.0000 YYXZ=              0.0000 ZZXY=           -263.0356
 N-N= 7.160590686408D+02 E-N=-2.950237766811D+03  KE= 6.461873928966D+02
 Symmetry A'   KE= 6.198697583705D+02
 Symmetry A"   KE= 2.631763452601D+01
 D1PCM: PCM CHGder 1st derivatives, ID1Alg=3 FixD1E=F DoIter=F DoCFld=F I1PDM=0.
 Calling FoFJK, ICntrl=      2127 FMM=F ISym2X=1 I1Cent= 0 IOpClX= 0 NMat=1 NMatS=1 NMatT=0.
 ***** Axes restored to original set *****
 -------------------------------------------------------------------
 Center     Atomic                   Forces (Hartrees/Bohr)
 Number     Number              X              Y              Z
 -------------------------------------------------------------------
      1        6          -0.012098278    0.003981591    0.018324051
      2        6          -0.013796163    0.017030112   -0.026168954
      3        6          -0.031478888    0.016845327    0.023238847
      4        6          -0.002984509    0.001394185    0.002967919
      5        6          -0.002187618    0.002629985   -0.003884134
      6        6           0.001783042   -0.000642884   -0.002489278
      7        6           0.001142044   -0.001459897    0.002355228
      8        6          -0.001312338    0.001221308   -0.000987047
      9        6           0.001777038   -0.001379481    0.000302950
     10        8          -0.000560392    0.000590601   -0.000681800
     11        8          -0.000594213    0.000336393    0.000369288
     12        1          -0.001452902    0.000872070    0.000716192
     13        1          -0.000430644    0.000332354   -0.000066083
     14        1          -0.000018391   -0.000005146    0.000070054
     15        1           0.000024983   -0.000021203    0.000011078
     16        1          -0.000505748    0.000095451    0.001033524
     17        1           0.005443206   -0.000561884   -0.012877347
     18        8           0.026978333   -0.026056511    0.023869213
     19        1           0.001235769    0.000322020   -0.004617691
     20        8           0.031515182   -0.018951180   -0.015403423
     21        1          -0.002479513    0.003426786   -0.006082590
 -------------------------------------------------------------------
 Cartesian Forces:  Max     0.031515182 RMS     0.010837145

 GradGradGradGradGradGradGradGradGradGradGradGradGradGradGradGradGradGrad
 Berny optimization.
 FormGI is forming the generalized inverse of G from B-inverse, IUseBI=4.
 Internal  Forces:  Max     0.041174392 RMS     0.006786351
 Search for a local minimum.
 Step number   1 out of a maximum of  103
 All quantities printed in internal units (Hartrees-Bohrs-Radians)
 Mixed Optimization -- RFO/linear search
 Second derivative matrix not updated -- first step.
 ITU=  0
     Eigenvalues ---    0.01268   0.01295   0.01295   0.01334   0.01590
     Eigenvalues ---    0.01790   0.01952   0.02020   0.02029   0.02064
     Eigenvalues ---    0.02078   0.02103   0.02119   0.02148   0.02181
     Eigenvalues ---    0.02206   0.02270   0.02766   0.16000   0.16000
     Eigenvalues ---    0.16000   0.16000   0.16000   0.16000   0.16000
     Eigenvalues ---    0.16000   0.22000   0.22000   0.22370   0.23480
     Eigenvalues ---    0.24613   0.25000   0.25000   0.25000   0.25000
     Eigenvalues ---    0.25000   0.35285   0.35356   0.35654   0.35691
     Eigenvalues ---    0.36710   0.37230   0.37338   0.40989   0.40989
     Eigenvalues ---    0.41257   0.42114   0.44770   0.45392   0.46702
     Eigenvalues ---    0.47950   0.53553   0.53703   0.55275   0.55473
     Eigenvalues ---    0.55473   0.95207
 RFO step:  Lambda=-1.18515409D-02 EMin= 1.26810873D-02
 Linear search not attempted -- first point.
 Iteration  1 RMS(Cart)=  0.03608099 RMS(Int)=  0.00074057
 Iteration  2 RMS(Cart)=  0.00093954 RMS(Int)=  0.00000674
 Iteration  3 RMS(Cart)=  0.00000139 RMS(Int)=  0.00000669
 Iteration  4 RMS(Cart)=  0.00000001 RMS(Int)=  0.00000669
 ClnCor:  largest displacement from symmetrization is 2.76D-08 for atom    14.
 Variable       Old X    -DE/DX   Delta X   Delta X   Delta X     New X
                                 (Linear)    (Quad)   (Total)
    R1        2.65364  -0.00699   0.00000  -0.01525  -0.01524   2.63839
    R2        2.61796   0.00048   0.00000   0.00127   0.00126   2.61923
    R3        2.02201   0.01035   0.00000   0.02693   0.02693   2.04894
    R4        2.63456   0.00015   0.00000  -0.00008  -0.00006   2.63450
    R5        2.70231  -0.04117   0.00000  -0.09763  -0.09763   2.60468
    R6        2.62231  -0.00703   0.00000  -0.01466  -0.01465   2.60766
    R7        2.70231  -0.03835   0.00000  -0.09093  -0.09093   2.61138
    R8        2.65734  -0.00032   0.00000  -0.00062  -0.00063   2.65671
    R9        2.04567   0.00022   0.00000   0.00060   0.00060   2.04628
   R10        2.66294  -0.00061   0.00000  -0.00094  -0.00096   2.66198
   R11        2.75339   0.00048   0.00000   0.00124   0.00124   2.75463
   R12        2.05100  -0.00110   0.00000  -0.00300  -0.00300   2.04800
   R13        2.54889  -0.00127   0.00000  -0.00225  -0.00225   2.54664
   R14        2.05215  -0.00026   0.00000  -0.00070  -0.00070   2.05145
   R15        2.76285   0.00079   0.00000   0.00210   0.00210   2.76495
   R16        2.04627   0.00007   0.00000   0.00019   0.00019   2.04646
   R17        2.30622  -0.00099   0.00000  -0.00102  -0.00102   2.30519
   R18        2.56303  -0.00067   0.00000  -0.00123  -0.00123   2.56180
   R19        1.83141   0.00004   0.00000   0.00006   0.00006   1.83147
   R20        1.81414   0.00457   0.00000   0.00807   0.00807   1.82221
   R21        1.81414   0.00619   0.00000   0.01093   0.01093   1.82507
    A1        2.09529  -0.00325   0.00000  -0.01312  -0.01312   2.08217
    A2        2.00779   0.01115   0.00000   0.06200   0.06200   2.06978
    A3        2.18011  -0.00790   0.00000  -0.04888  -0.04888   2.13123
    A4        2.08754   0.00410   0.00000   0.01519   0.01522   2.10276
    A5        2.10597   0.01225   0.00000   0.04703   0.04701   2.15298
    A6        2.08967  -0.01635   0.00000  -0.06222  -0.06223   2.02744
    A7        2.09997  -0.00017   0.00000  -0.00150  -0.00148   2.09848
    A8        2.07224   0.00811   0.00000   0.03139   0.03138   2.10362
    A9        2.11098  -0.00794   0.00000  -0.02989  -0.02990   2.08108
   A10        2.10809  -0.00184   0.00000  -0.00794  -0.00795   2.10015
   A11        2.07309  -0.00095   0.00000  -0.00691  -0.00691   2.06618
   A12        2.10200   0.00279   0.00000   0.01485   0.01485   2.11686
   A13        2.06626   0.00155   0.00000   0.00719   0.00716   2.07342
   A14        2.15457  -0.00266   0.00000  -0.01077  -0.01076   2.14381
   A15        2.06236   0.00110   0.00000   0.00359   0.00360   2.06596
   A16        2.10922  -0.00039   0.00000   0.00018   0.00016   2.10939
   A17        2.08427   0.00056   0.00000   0.00205   0.00206   2.08634
   A18        2.08969  -0.00017   0.00000  -0.00224  -0.00223   2.08746
   A19        2.22266  -0.00031   0.00000  -0.00136  -0.00136   2.22130
   A20        2.01059  -0.00034   0.00000  -0.00220  -0.00220   2.00838
   A21        2.04994   0.00065   0.00000   0.00356   0.00356   2.05350
   A22        2.16107  -0.00012   0.00000  -0.00053  -0.00053   2.16054
   A23        2.13729   0.00009   0.00000   0.00041   0.00041   2.13770
   A24        1.98482   0.00004   0.00000   0.00012   0.00012   1.98495
   A25        2.16342  -0.00030   0.00000  -0.00116  -0.00116   2.16226
   A26        2.00055  -0.00029   0.00000  -0.00110  -0.00110   1.99945
   A27        2.11921   0.00059   0.00000   0.00226   0.00226   2.12147
   A28        1.87894  -0.00002   0.00000  -0.00011  -0.00011   1.87884
   A29        1.91114  -0.00262   0.00000  -0.01523  -0.01523   1.89591
   A30        1.91114  -0.00739   0.00000  -0.04302  -0.04302   1.86811
    D1        0.00000   0.00000   0.00000   0.00000   0.00000   0.00000
    D2        3.14159   0.00000   0.00000   0.00000   0.00000   3.14159
    D3        3.14159   0.00000   0.00000   0.00000   0.00000   3.14159
    D4        0.00000   0.00000   0.00000   0.00000   0.00000   0.00000
    D5        0.00000   0.00000   0.00000   0.00000   0.00000   0.00000
    D6        3.14159   0.00000   0.00000   0.00000   0.00000   3.14159
    D7        3.14159   0.00000   0.00000   0.00000   0.00000   3.14159
    D8        0.00000   0.00000   0.00000   0.00000   0.00000   0.00000
    D9        0.00000   0.00000   0.00000   0.00000   0.00000   0.00000
   D10        3.14159   0.00000   0.00000   0.00000   0.00000   3.14159
   D11        3.14159   0.00000   0.00000   0.00000   0.00000   3.14159
   D12        0.00000   0.00000   0.00000   0.00000   0.00000   0.00000
   D13        0.00000   0.00000   0.00000   0.00000   0.00000   0.00000
   D14        3.14159   0.00000   0.00000   0.00000   0.00000   3.14159
   D15        0.00000   0.00000   0.00000   0.00000   0.00000   0.00000
   D16        3.14159   0.00000   0.00000   0.00000   0.00000   3.14159
   D17        3.14159   0.00000   0.00000   0.00000   0.00000   3.14159
   D18        0.00000   0.00000   0.00000   0.00000   0.00000   0.00000
   D19        0.00000   0.00000   0.00000   0.00000   0.00000   0.00000
   D20        3.14159   0.00000   0.00000   0.00000   0.00000   3.14159
   D21        0.00000   0.00000   0.00000   0.00000   0.00000   0.00000
   D22        3.14159   0.00000   0.00000   0.00000   0.00000   3.14159
   D23        3.14159   0.00000   0.00000   0.00000   0.00000  -3.14159
   D24        0.00000   0.00000   0.00000   0.00000   0.00000   0.00000
   D25        0.00000   0.00000   0.00000   0.00000   0.00000   0.00000
   D26        3.14159   0.00000   0.00000   0.00000   0.00000   3.14159
   D27        3.14159   0.00000   0.00000   0.00000   0.00000   3.14159
   D28        0.00000   0.00000   0.00000   0.00000   0.00000   0.00000
   D29        0.00000   0.00000   0.00000   0.00000   0.00000   0.00000
   D30        3.14159   0.00000   0.00000   0.00000   0.00000   3.14159
   D31        3.14159   0.00000   0.00000   0.00000   0.00000   3.14159
   D32        0.00000   0.00000   0.00000   0.00000   0.00000   0.00000
   D33        3.14159   0.00000   0.00000   0.00000   0.00000   3.14159
   D34        0.00000   0.00000   0.00000   0.00000   0.00000   0.00000
   D35        0.00000   0.00000   0.00000   0.00000   0.00000   0.00000
   D36        3.14159   0.00000   0.00000   0.00000   0.00000  -3.14159
   D37        3.14159   0.00000   0.00000   0.00000   0.00000   3.14159
   D38        0.00000   0.00000   0.00000   0.00000   0.00000   0.00000
   D39        0.00000   0.00000   0.00000   0.00000   0.00000   0.00000
   D40        3.14159   0.00000   0.00000   0.00000   0.00000   3.14159
   D41        3.14159   0.00000   0.00000   0.00000   0.00000   3.14159
   D42        0.00000   0.00000   0.00000   0.00000   0.00000   0.00000
         Item               Value     Threshold  Converged?
 Maximum Force            0.041174     0.000450     NO 
 RMS     Force            0.006786     0.000300     NO 
 Maximum Displacement     0.151287     0.001800     NO 
 RMS     Displacement     0.035849     0.001200     NO 
 Predicted change in Energy=-6.141601D-03
 GradGradGradGradGradGradGradGradGradGradGradGradGradGradGradGradGradGrad

                          Input orientation:                          
 ---------------------------------------------------------------------
 Center     Atomic      Atomic             Coordinates (Angstroms)
 Number     Number       Type             X           Y           Z
 ---------------------------------------------------------------------
      1          6           0       -0.153435    1.957180   -1.314125
      2          6           0       -1.032391    2.329331   -0.295180
      3          6           0       -0.852492    1.853375    1.002767
      4          6           0        0.198616    1.007860    1.293351
      5          6           0        1.096844    0.619033    0.284158
      6          6           0        0.902431    1.107926   -1.022559
      7          6           0        2.224879   -0.270866    0.530076
      8          6           0        2.576466   -0.838528    1.700645
      9          6           0        3.729829   -1.724358    1.861459
     10          8           0        4.049703   -2.239136    2.920105
     11          8           0        4.437347   -1.940099    0.725392
     12          1           0        0.310073    0.656211    2.311422
     13          1           0        2.837560   -0.488031   -0.339373
     14          1           0        2.021201   -0.675518    2.615996
     15          1           0        5.170865   -2.534461    0.944443
     16          1           0        1.587046    0.816559   -1.810552
     17          1           0       -0.322103    2.345386   -2.312349
     18          8           0       -2.108471    3.168027   -0.491278
     19          1           0       -2.129840    3.429862   -1.419074
     20          8           0       -1.721833    2.221060    2.012049
     21          1           0       -2.380735    2.807222    1.618347
 ---------------------------------------------------------------------
                    Distance matrix (angstroms):
                    1          2          3          4          5
     1  C    0.000000
     2  C    1.396176   0.000000
     3  C    2.422280   1.394117   0.000000
     4  C    2.797155   2.405223   1.379915   0.000000
     5  C    2.430708   2.791844   2.416591   1.405870   0.000000
     6  C    1.386036   2.400926   2.781617   2.422562   1.408659
     7  C    3.744548   4.248750   3.769091   2.514650   1.457690
     8  C    4.935299   5.200240   4.414876   3.037961   2.514002
     9  C    6.222362   6.615302   5.876665   4.500802   3.861602
    10  O    7.294116   7.552260   6.667559   5.293409   4.882287
    11  O    6.357963   7.013390   6.515349   5.194215   4.231171
    12  H    3.879684   3.375784   2.120693   1.082843   2.174901
    13  H    3.984375   4.787066   4.571652   3.444924   2.155104
    14  H    5.206341   5.179622   4.154025   2.811577   2.822724
    15  H    7.322851   7.979570   7.452338   6.114984   5.194050
    16  H    2.139329   3.383235   3.865371   3.405664   2.160352
    17  H    1.084253   2.138630   3.393137   3.880876   3.425719
    18  O    2.442416   1.378337   2.353287   3.629583   4.168059
    19  H    2.466979   1.917994   3.159469   4.317992   4.605784
    20  O    3.686860   2.410469   1.381882   2.382542   3.673832
    21  H    3.779263   2.389141   1.903757   3.161705   4.319929
                    6          7          8          9         10
     6  C    0.000000
     7  C    2.461831   0.000000
     8  C    3.742582   1.347623   0.000000
     9  C    4.932907   2.479938   1.463148   0.000000
    10  O    6.054151   3.593927   2.370488   1.219855   0.000000
    11  O    4.984117   2.778399   2.372226   1.355645   2.248656
    12  H    3.416192   2.774734   2.782774   4.190979   4.768476
    13  H    2.599720   1.085578   2.086311   2.677370   3.893566
    14  H    4.203737   2.134547   1.082939   2.142149   2.579187
    15  H    5.946059   3.738235   3.190445   1.890442   2.290734
    16  H    1.083755   2.658545   4.005842   4.952923   6.146631
    17  H    2.166645   4.627231   5.885842   7.099411   8.216392
    18  O    3.686707   5.625573   6.542602   7.972236   8.876827
    19  H    3.839698   6.038059   7.078215   8.465436   9.442074
    20  O    4.163493   4.897190   5.285208   6.731242   7.350411
    21  H    4.543255   5.645408   6.154031   7.611393   8.277127
                   11         12         13         14         15
    11  O    0.000000
    12  H    5.127446   0.000000
    13  H    2.408639   3.837212   0.000000
    14  H    3.318329   2.189572   3.071774   0.000000
    15  H    0.969174   5.972966   3.358627   4.021212   0.000000
    16  H    4.706845   4.318222   2.330259   4.691387   5.626997
    17  H    7.088414   4.963086   4.680209   6.237429   8.036934
    18  O    8.391720   4.473667   6.152484   6.440666   9.357799
    19  H    8.750038   5.250040   6.417999   7.096977   9.719036
    20  O    7.543622   2.582057   5.801416   4.771291   8.441804
    21  H    8.355876   3.513922   6.474717   5.701037   9.274394
                   16         17         18         19         20
    16  H    0.000000
    17  H    2.496790   0.000000
    18  O    4.574574   2.680326   0.000000
    19  H    4.560466   2.289529   0.964272   0.000000
    20  O    5.247245   4.546990   2.704234   3.660639   0.000000
    21  H    5.609222   4.461124   2.157504   3.110717   0.965784
                   21
    21  H    0.000000
 Stoichiometry    C9H8O4
 Framework group  CS[SG(C9H8O4)]
 Deg. of freedom    39
 Full point group                 CS      NOp   2
 Largest Abelian subgroup         CS      NOp   2
 Largest concise Abelian subgroup C1      NOp   1
                         Standard orientation:                         
 ---------------------------------------------------------------------
 Center     Atomic      Atomic             Coordinates (Angstroms)
 Number     Number       Type             X           Y           Z
 ---------------------------------------------------------------------
      1          6           0       -1.870265    1.993321    0.000000
      2          6           0       -2.751992    0.910793    0.000000
      3          6           0       -2.267009   -0.396247    0.000000
      4          6           0       -0.907545   -0.632940    0.000000
      5          6           0        0.000000    0.440760    0.000000
      6          6           0       -0.504716    1.755896    0.000000
      7          6           0        1.445630    0.253644    0.000000
      8          6           0        2.117325   -0.914650    0.000000
      9          6           0        3.577096   -1.014011    0.000000
     10          8           0        4.186924   -2.070494    0.000000
     11          8           0        4.222996    0.177873    0.000000
     12          1           0       -0.563832   -1.659785    0.000000
     13          1           0        2.028065    1.169750    0.000000
     14          1           0        1.615221   -1.874155    0.000000
     15          1           0        5.174989   -0.003808    0.000000
     16          1           0        0.183199    2.593330    0.000000
     17          1           0       -2.280766    2.996862    0.000000
     18          8           0       -4.123258    1.050231    0.000000
     19          1           0       -4.337243    1.990461    0.000000
     20          8           0       -3.138790   -1.468439    0.000000
     21          1           0       -4.033749   -1.105415    0.000000
 ---------------------------------------------------------------------
 Rotational constants (GHZ):      2.2656398      0.3232665      0.2829015
 Standard basis: 6-311++G(d,p) (5D, 7F)
 There are   269 symmetry adapted cartesian basis functions of A'  symmetry.
 There are    86 symmetry adapted cartesian basis functions of A"  symmetry.
 There are   256 symmetry adapted basis functions of A'  symmetry.
 There are    86 symmetry adapted basis functions of A"  symmetry.
   342 basis functions,   540 primitive gaussians,   355 cartesian basis functions
    47 alpha electrons       47 beta electrons
       nuclear repulsion energy       720.6699348636 Hartrees.
 NAtoms=   21 NActive=   21 NUniq=   21 SFac= 1.00D+00 NAtFMM=   60 NAOKFM=F Big=F
 Integral buffers will be    131072 words long.
 Raffenetti 2 integral format.
 Two-electron integral symmetry is turned on.
 ------------------------------------------------------------------------------
 Polarizable Continuum Model (PCM)
 =================================
 Model                : PCM (using non-symmetric T matrix).
 Atomic radii         : UFF (Universal Force Field).
 Polarization charges : Total charges.
 Charge compensation  : None.
 Solution method      : On-the-fly selection.
 Cavity type          : Scaled VdW (van der Waals Surface) (Alpha=1.100).
 Cavity algorithm     : GePol (No added spheres)
                        Default sphere list used, NSphG=   21.
                        Lebedev-Laikov grids with approx.  5.0 points / Ang**2.
                        Smoothing algorithm: Karplus/York (Gamma=1.0000).
                        Polarization charges: spherical gaussians, with
                                              point-specific exponents (IZeta= 3).
                        Self-potential: point-specific (ISelfS= 7).
                        Self-field    : sphere-specific E.n sum rule (ISelfD= 2).
 1st derivatives      : Analytical E(r).r(x)/FMM algorithm (CHGder, D1EAlg=3).
                        Cavity 1st derivative terms included.
 Solvent              : Water, Eps=  78.355300 Eps(inf)=   1.777849
 ------------------------------------------------------------------------------
 One-electron integrals computed using PRISM.
 NBasis=   342 RedAO= T EigKep=  1.33D-06  NBF=   256    86
 NBsUse=   340 1.00D-06 EigRej=  8.70D-07 NBFU=   254    86
 Initial guess from the checkpoint file:  "LB04-IV.chk"
 B after Tr=     0.000000    0.000000    0.000000
         Rot=    0.864984    0.000000    0.000000    0.501800 Ang=  60.24 deg.
 Initial guess orbital symmetries:
       Occupied  (A') (A') (A') (A') (A') (A') (A') (A') (A') (A')
                 (A') (A') (A') (A') (A') (A') (A') (A') (A') (A')
                 (A') (A') (A') (A') (A') (A') (A') (A') (A') (A')
                 (A') (A") (A') (A") (A') (A') (A') (A') (A') (A")
                 (A") (A') (A") (A") (A') (A") (A")
       Virtual   (A') (A') (A') (A') (A') (A') (A') (A') (A') (A')
                 (A') (A') (A') (A') (A') (A') (A') (A') (A') (A')
                 (A') (A') (A') (A') (A') (A') (A') (A') (A') (A')
                 (A') (A') (A') (A') (A') (A') (A') (A') (A') (A')
                 (A') (A') (A') (A') (A') (A') (A') (A') (A') (A')
                 (A') (A') (A') (A') (A') (A') (A') (A') (A') (A')
                 (A') (A') (A') (A') (A') (A') (A') (A') (A') (A')
                 (A') (A') (A') (A') (A') (A') (A') (A') (A') (A')
                 (A') (A') (A') (A') (A') (A') (A') (A') (A') (A')
                 (A') (A') (A') (A') (A') (A') (A') (A') (A') (A')
                 (A') (A') (A') (A') (A') (A') (A') (A') (A') (A')
                 (A') (A') (A') (A') (A') (A') (A') (A') (A') (A')
                 (A') (A') (A') (A') (A') (A') (A') (A') (A') (A')
                 (A') (A') (A') (A') (A') (A') (A') (A') (A') (A')
                 (A') (A') (A') (A') (A') (A') (A') (A') (A') (A')
                 (A') (A') (A') (A') (A') (A') (A') (A') (A') (A')
                 (A') (A') (A') (A') (A') (A') (A') (A') (A') (A')
                 (A') (A') (A') (A') (A') (A') (A') (A') (A') (A')
                 (A') (A') (A') (A') (A') (A') (A') (A') (A') (A')
                 (A') (A') (A') (A') (A') (A') (A') (A') (A') (A')
                 (A') (A') (A') (A') (A') (A') (A') (A') (A') (A')
                 (A') (A') (A') (A') (A') (A") (A") (A") (A") (A")
                 (A") (A") (A") (A") (A") (A") (A") (A") (A") (A")
                 (A") (A") (A") (A") (A") (A") (A") (A") (A") (A")
                 (A") (A") (A") (A") (A") (A") (A") (A") (A") (A")
                 (A") (A") (A") (A") (A") (A") (A") (A") (A") (A")
                 (A") (A") (A") (A") (A") (A") (A") (A") (A") (A")
                 (A") (A") (A") (A") (A") (A") (A") (A") (A") (A")
                 (A") (A") (A") (A") (A") (A") (A") (A") (A") (A")
                 (A") (A") (A")
 ExpMin= 3.60D-02 ExpMax= 8.59D+03 ExpMxC= 1.30D+03 IAcc=3 IRadAn=         5 AccDes= 0.00D+00
 Harris functional with IExCor=  402 and IRadAn=       5 diagonalized for initial guess.
 HarFok:  IExCor=  402 AccDes= 0.00D+00 IRadAn=         5 IDoV= 1 UseB2=F ITyADJ=14
 ICtDFT=  3500011 ScaDFX=  1.000000  1.000000  1.000000  1.000000
 FoFCou: FMM=F IPFlag=           0 FMFlag=      100000 FMFlg1=           0
         NFxFlg=           0 DoJE=T BraDBF=F KetDBF=T FulRan=T
         wScrn=  0.000000 ICntrl=     500 IOpCl=  0 I1Cent=   200000004 NGrid=           0
         NMat0=    1 NMatS0=      1 NMatT0=    0 NMatD0=    1 NMtDS0=    0 NMtDT0=    0
 Petite list used in FoFCou.
 Requested convergence on RMS density matrix=1.00D-08 within 128 cycles.
 Requested convergence on MAX density matrix=1.00D-06.
 Requested convergence on             energy=1.00D-06.
 No special actions if energy rises.
 Inv3:  Mode=1 IEnd=    10267500.
 Iteration    1 A*A^-1 deviation from unit magnitude is 8.22D-15 for     25.
 Iteration    1 A*A^-1 deviation from orthogonality  is 6.09D-15 for   1432   1168.
 Iteration    1 A^-1*A deviation from unit magnitude is 8.10D-15 for    211.
 Iteration    1 A^-1*A deviation from orthogonality  is 4.71D-12 for   1536   1522.
 Error on total polarization charges =  0.01489
 SCF Done:  E(RB3LYP) =  -648.882794356     A.U. after   12 cycles
            NFock= 12  Conv=0.96D-08     -V/T= 2.0038
 D1PCM: PCM CHGder 1st derivatives, ID1Alg=3 FixD1E=F DoIter=F DoCFld=F I1PDM=0.
 Calling FoFJK, ICntrl=      2127 FMM=F ISym2X=1 I1Cent= 0 IOpClX= 0 NMat=1 NMatS=1 NMatT=0.
 ***** Axes restored to original set *****
 -------------------------------------------------------------------
 Center     Atomic                   Forces (Hartrees/Bohr)
 Number     Number              X              Y              Z
 -------------------------------------------------------------------
      1        6          -0.005719214    0.002874602    0.004922748
      2        6          -0.005189233    0.006821208   -0.011409066
      3        6          -0.006789312    0.000758122    0.015846052
      4        6           0.002461550   -0.001673900   -0.000473261
      5        6           0.001464593   -0.000484689   -0.002208154
      6        6           0.002516773   -0.002127785    0.001084973
      7        6          -0.000358783    0.000355085   -0.000349697
      8        6           0.000515477   -0.000494113    0.000441935
      9        6          -0.000614680    0.000489459   -0.000151118
     10        8           0.000271169   -0.000263467    0.000245809
     11        8           0.000174184   -0.000158665    0.000118057
     12        1          -0.000384842    0.000273270    0.000030388
     13        1           0.000030966    0.000003790   -0.000099587
     14        1           0.000109546   -0.000071695   -0.000031607
     15        1           0.000059645   -0.000019018   -0.000092645
     16        1           0.000106731   -0.000110704    0.000123146
     17        1           0.002052061   -0.001225038   -0.001036652
     18        8           0.008455854   -0.006558628    0.001420872
     19        1          -0.003087562    0.002324655   -0.000254448
     20        8           0.006658108   -0.002224104   -0.009960413
     21        1          -0.002733033    0.001511613    0.001832667
 -------------------------------------------------------------------
 Cartesian Forces:  Max     0.015846052 RMS     0.003773761

 GradGradGradGradGradGradGradGradGradGradGradGradGradGradGradGradGradGrad
 Berny optimization.
 Using GEDIIS/GDIIS optimizer.
 FormGI is forming the generalized inverse of G from B-inverse, IUseBI=4.
 GSVD:  received Info=                   1 from GESDD.
 Internal  Forces:  Max     0.008596945 RMS     0.001939768
 Search for a local minimum.
 Step number   2 out of a maximum of  103
 All quantities printed in internal units (Hartrees-Bohrs-Radians)
 Mixed Optimization -- RFO/linear search
 Update second derivatives using D2CorX and points    1    2
 DE= -6.97D-03 DEPred=-6.14D-03 R= 1.14D+00
 TightC=F SS=  1.41D+00  RLast= 1.91D-01 DXNew= 5.0454D-01 5.7248D-01
 Trust test= 1.14D+00 RLast= 1.91D-01 DXMaxT set to 5.05D-01
 ITU=  1  0
 Use linear search instead of GDIIS.
     Eigenvalues ---    0.01268   0.01295   0.01295   0.01334   0.01590
     Eigenvalues ---    0.01792   0.01951   0.02020   0.02027   0.02066
     Eigenvalues ---    0.02078   0.02103   0.02118   0.02146   0.02177
     Eigenvalues ---    0.02205   0.02270   0.02766   0.14417   0.16000
     Eigenvalues ---    0.16000   0.16000   0.16000   0.16000   0.16000
     Eigenvalues ---    0.17313   0.21990   0.22000   0.22423   0.23251
     Eigenvalues ---    0.23966   0.24713   0.25000   0.25000   0.25000
     Eigenvalues ---    0.26020   0.34866   0.35287   0.35359   0.35655
     Eigenvalues ---    0.35693   0.36712   0.37342   0.37392   0.41025
     Eigenvalues ---    0.41287   0.42827   0.44747   0.45772   0.46853
     Eigenvalues ---    0.49977   0.53553   0.53709   0.55318   0.55366
     Eigenvalues ---    0.55486   0.95220
 RFO step:  Lambda=-1.30380747D-03 EMin= 1.26810873D-02
 Quartic linear search produced a step of  0.14767.
 Iteration  1 RMS(Cart)=  0.01485143 RMS(Int)=  0.00040155
 Iteration  2 RMS(Cart)=  0.00034864 RMS(Int)=  0.00000208
 Iteration  3 RMS(Cart)=  0.00000008 RMS(Int)=  0.00000208
 ClnCor:  largest displacement from symmetrization is 2.33D-08 for atom    15.
 Variable       Old X    -DE/DX   Delta X   Delta X   Delta X     New X
                                 (Linear)    (Quad)   (Total)
    R1        2.63839  -0.00265  -0.00225  -0.00592  -0.00816   2.63023
    R2        2.61923   0.00356   0.00019   0.00792   0.00811   2.62734
    R3        2.04894   0.00020   0.00398  -0.00086   0.00311   2.05205
    R4        2.63450   0.00721  -0.00001   0.01824   0.01823   2.65273
    R5        2.60468  -0.00693  -0.01442  -0.01420  -0.02861   2.57607
    R6        2.60766   0.00361  -0.00216   0.00989   0.00772   2.61538
    R7        2.61138  -0.00860  -0.01343  -0.01919  -0.03262   2.57876
    R8        2.65671   0.00120  -0.00009   0.00308   0.00298   2.65969
    R9        2.04628  -0.00010   0.00009  -0.00035  -0.00027   2.04601
   R10        2.66198  -0.00161  -0.00014  -0.00468  -0.00483   2.65715
   R11        2.75463   0.00025   0.00018   0.00071   0.00089   2.75553
   R12        2.04800   0.00001  -0.00044   0.00019  -0.00025   2.04775
   R13        2.54664   0.00082  -0.00033   0.00181   0.00148   2.54811
   R14        2.05145   0.00010  -0.00010   0.00035   0.00025   2.05169
   R15        2.76495  -0.00010   0.00031  -0.00044  -0.00013   2.76482
   R16        2.04646  -0.00009   0.00003  -0.00031  -0.00028   2.04618
   R17        2.30519   0.00040  -0.00015   0.00052   0.00037   2.30556
   R18        2.56180   0.00012  -0.00018   0.00033   0.00014   2.56194
   R19        1.83147   0.00004   0.00001   0.00007   0.00008   1.83156
   R20        1.82221   0.00095   0.00119   0.00156   0.00276   1.82497
   R21        1.82507   0.00204   0.00161   0.00368   0.00529   1.83036
    A1        2.08217   0.00150  -0.00194   0.00733   0.00540   2.08758
    A2        2.06978   0.00191   0.00916   0.01083   0.01998   2.08976
    A3        2.13123  -0.00341  -0.00722  -0.01816  -0.02538   2.10585
    A4        2.10276  -0.00161   0.00225  -0.00757  -0.00531   2.09745
    A5        2.15298   0.00446   0.00694   0.01698   0.02392   2.17690
    A6        2.02744  -0.00285  -0.00919  -0.00942  -0.01861   2.00883
    A7        2.09848  -0.00106  -0.00022  -0.00309  -0.00331   2.09517
    A8        2.10362  -0.00046   0.00463  -0.00493  -0.00030   2.10332
    A9        2.08108   0.00152  -0.00441   0.00802   0.00361   2.08469
   A10        2.10015   0.00080  -0.00117   0.00535   0.00417   2.10431
   A11        2.06618  -0.00087  -0.00102  -0.00517  -0.00619   2.05999
   A12        2.11686   0.00008   0.00219  -0.00018   0.00202   2.11888
   A13        2.07342  -0.00065   0.00106  -0.00478  -0.00373   2.06969
   A14        2.14381   0.00067  -0.00159   0.00446   0.00287   2.14668
   A15        2.06596  -0.00003   0.00053   0.00032   0.00086   2.06682
   A16        2.10939   0.00103   0.00002   0.00276   0.00278   2.11217
   A17        2.08634  -0.00031   0.00030  -0.00011   0.00020   2.08653
   A18        2.08746  -0.00072  -0.00033  -0.00265  -0.00298   2.08449
   A19        2.22130   0.00054  -0.00020   0.00289   0.00269   2.22399
   A20        2.00838  -0.00031  -0.00033  -0.00150  -0.00182   2.00656
   A21        2.05350  -0.00023   0.00053  -0.00139  -0.00087   2.05263
   A22        2.16054   0.00020  -0.00008   0.00108   0.00101   2.16155
   A23        2.13770   0.00000   0.00006   0.00015   0.00021   2.13790
   A24        1.98495  -0.00020   0.00002  -0.00123  -0.00121   1.98373
   A25        2.16226   0.00016  -0.00017   0.00082   0.00065   2.16291
   A26        1.99945   0.00017  -0.00016   0.00083   0.00067   2.00012
   A27        2.12147  -0.00033   0.00033  -0.00165  -0.00132   2.12016
   A28        1.87884   0.00019  -0.00002   0.00135   0.00134   1.88017
   A29        1.89591   0.00684  -0.00225   0.04989   0.04764   1.94355
   A30        1.86811   0.00546  -0.00635   0.04231   0.03596   1.90407
    D1        0.00000   0.00000   0.00000   0.00000   0.00000   0.00000
    D2        3.14159   0.00000   0.00000   0.00000   0.00000   3.14159
    D3        3.14159   0.00000   0.00000   0.00000   0.00000   3.14159
    D4        0.00000   0.00000   0.00000   0.00000   0.00000   0.00000
    D5        0.00000   0.00000   0.00000   0.00000   0.00000   0.00000
    D6        3.14159   0.00000   0.00000   0.00000   0.00000   3.14159
    D7        3.14159   0.00000   0.00000   0.00000   0.00000  -3.14159
    D8        0.00000   0.00000   0.00000   0.00000   0.00000   0.00000
    D9        0.00000   0.00000   0.00000   0.00000   0.00000   0.00000
   D10        3.14159   0.00000   0.00000   0.00000   0.00000   3.14159
   D11        3.14159   0.00000   0.00000   0.00000   0.00000   3.14159
   D12        0.00000   0.00000   0.00000   0.00000   0.00000   0.00000
   D13        0.00000   0.00000   0.00000   0.00000   0.00000   0.00000
   D14        3.14159   0.00000   0.00000   0.00000   0.00000   3.14159
   D15        0.00000   0.00000   0.00000   0.00000   0.00000   0.00000
   D16        3.14159   0.00000   0.00000   0.00000   0.00000   3.14159
   D17        3.14159   0.00000   0.00000   0.00000   0.00000  -3.14159
   D18        0.00000   0.00000   0.00000   0.00000   0.00000   0.00000
   D19        0.00000   0.00000   0.00000   0.00000   0.00000   0.00000
   D20        3.14159   0.00000   0.00000   0.00000   0.00000   3.14159
   D21        0.00000   0.00000   0.00000   0.00000   0.00000   0.00000
   D22        3.14159   0.00000   0.00000   0.00000   0.00000   3.14159
   D23       -3.14159   0.00000   0.00000   0.00000   0.00000   3.14159
   D24        0.00000   0.00000   0.00000   0.00000   0.00000   0.00000
   D25        0.00000   0.00000   0.00000   0.00000   0.00000   0.00000
   D26        3.14159   0.00000   0.00000   0.00000   0.00000   3.14159
   D27        3.14159   0.00000   0.00000   0.00000   0.00000  -3.14159
   D28        0.00000   0.00000   0.00000   0.00000   0.00000   0.00000
   D29        0.00000   0.00000   0.00000   0.00000   0.00000   0.00000
   D30       -3.14159   0.00000   0.00000   0.00000   0.00000  -3.14159
   D31        3.14159   0.00000   0.00000   0.00000   0.00000   3.14159
   D32        0.00000   0.00000   0.00000   0.00000   0.00000   0.00000
   D33        3.14159   0.00000   0.00000   0.00000   0.00000   3.14159
   D34        0.00000   0.00000   0.00000   0.00000   0.00000   0.00000
   D35        0.00000   0.00000   0.00000   0.00000   0.00000   0.00000
   D36        3.14159   0.00000   0.00000   0.00000   0.00000   3.14159
   D37        3.14159   0.00000   0.00000   0.00000   0.00000   3.14159
   D38        0.00000   0.00000   0.00000   0.00000   0.00000   0.00000
   D39        0.00000   0.00000   0.00000   0.00000   0.00000   0.00000
   D40        3.14159   0.00000   0.00000   0.00000   0.00000  -3.14159
   D41        3.14159   0.00000   0.00000   0.00000   0.00000   3.14159
   D42        0.00000   0.00000   0.00000   0.00000   0.00000   0.00000
         Item               Value     Threshold  Converged?
 Maximum Force            0.008597     0.000450     NO 
[...]
 21239,-0.00003143,-0.00073345,0.00518835,0.00159176,0.00185473,0.00918
 051,-0.02348069,-0.05359501,0.02038752,-0.02345685,0.00698753,-0.00847
 247,0.01770062,-0.00083035,0.00376749,0.00319377,-0.00051445,-0.001638
 39,-0.00128424,-0.00058130,0.00030063,0.00084414,-0.00029377,0.0001990
 3,-0.00040581,0.00010679,-0.00015924,0.00013577,0.00027745,-0.00017040
 ,-0.00007276,0.04912099,-0.00016248,-0.00112525,-0.00045426,0.00548285
 ,0.00284171,0.00034509,0.00255920,-0.00124577,0.01983607,0.02093924,-0
 .07310560,0.08884285,-0.00282950,0.00612192,-0.00840233,0.00357445,0.0
 0305834,-0.00071178,-0.00149795,-0.00218660,0.00022420,0.00052667,-0.0
 0007557,-0.00065278,0.00014290,-0.00032073,0.00018007,-0.00013471,0.00
 007387,-0.00014089,-0.00016050,0.00011786,0.00006488,-0.02649992,0.068
 23159,-0.00021869,-0.00031791,0.00043444,0.00048085,0.00115780,0.00125
 482,0.00146960,0.00159619,-0.00417530,-0.02553513,0.09036213,-0.304387
 82,-0.00356431,0.00714288,-0.01527575,0.00392183,-0.00124373,-0.000633
 90,-0.00181449,0.00061189,-0.00052676,-0.00000726,-0.00002985,0.000269
 92,-0.00019434,0.00002479,0.00027116,0.00004314,-0.00007275,0.00009477
 ,-0.00011049,0.00009278,-0.00002652,0.02671361,-0.09906965,0.32230059,
 0.00008842,0.00012437,-0.00025598,0.00026297,-0.00005218,-0.00008469,0
 .00006712,-0.00030178,0.00113282,-0.00142429,0.00376447,-0.00192848,-0
 .01096333,0.00628636,0.01950008,0.00020105,-0.00159045,0.00120305,-0.1
 3964053,0.03617765,0.12617720,0.00938642,0.00014398,-0.00642653,-0.002
 57893,-0.00346804,-0.00125782,0.00056519,0.00032895,0.00043365,-0.0009
 4500,0.00176042,-0.00094861,0.00010146,-0.00011871,0.00004866,0.142254
 16,0.00002385,0.00009254,0.00020747,-0.00002109,0.00014122,0.00013404,
 0.00004243,0.00028607,-0.00094679,0.00352735,-0.00012356,0.00215026,0.
 01233320,-0.00048981,-0.01436287,-0.00073627,-0.00059805,-0.00151255,0
 .03655107,-0.05988411,-0.04215181,-0.00625365,0.00854389,0.01235330,-0
 .00399021,-0.00469770,-0.00061960,0.00047566,0.00088937,-0.00024344,0.
 00145927,-0.00012285,0.00065896,-0.00008972,0.00003650,-0.00005415,-0.
 04835943,0.05152788,0.00012090,-0.00006839,0.00008806,-0.00019948,0.00
 021848,-0.00011106,-0.00016387,0.00000116,0.00051333,-0.00103337,0.001
 49622,0.00023536,-0.00328554,0.00229398,0.00512115,-0.00201602,0.00084
 095,0.00084767,0.12476795,-0.04112190,-0.23309749,0.01768135,-0.005270
 54,-0.02159643,0.00071073,-0.00205848,-0.00197953,-0.00011930,0.000160
 73,0.00089547,0.00018654,-0.00017079,0.00124884,-0.00006109,0.00002616
 ,0.00002600,-0.13565885,0.04025251,0.24888130,-0.00010457,0.00002960,0
 .00014257,-0.00011719,-0.00010342,-0.00016344,-0.00010884,-0.00014617,
 0.00020053,-0.00026560,0.00034170,-0.00091893,-0.00248200,-0.00216701,
 -0.00030901,0.00012589,-0.00012905,0.00016926,0.00966209,-0.00172096,-
 0.00700516,-0.12387131,0.03257564,0.12296851,-0.01000757,0.00198232,0.
 02217268,0.00120163,-0.00151125,-0.00112507,-0.00404147,0.00447623,-0.
 00044864,-0.00098909,0.00142744,-0.00029077,0.00303362,0.00513480,-0.0
 0084672,0.12784475,0.00008630,-0.00004023,-0.00012775,-0.00015933,-0.0
 0021972,0.00006430,-0.00000754,-0.00013905,-0.00034451,0.00007329,-0.0
 0037628,0.00071825,-0.00231930,-0.00349349,-0.00139032,-0.00006839,0.0
 0009297,-0.00012356,-0.00763767,0.00727873,0.01156809,0.03153455,-0.04
 942463,-0.03128006,0.00901671,-0.00145147,-0.01653059,-0.00172470,-0.0
 0003717,0.00008868,0.00457794,-0.00159134,0.00061515,0.00139766,-0.000
 23332,0.00026184,0.00511327,0.00501662,0.00375203,-0.04072623,0.043799
 26,-0.00006831,0.00002735,0.00007782,0.00004531,-0.00008972,-0.0001098
 6,-0.00032164,0.00003781,0.00050936,0.00009078,-0.00002023,-0.00030692
 ,0.00026676,-0.00181034,0.00053123,-0.00006089,0.00004379,0.00001027,0
 .01529147,-0.00473122,-0.01953031,0.12689040,-0.03414783,-0.25554790,-
 0.00433402,0.00284729,0.00196405,-0.00032151,-0.00049917,0.00149113,-0
 .00083264,0.00089565,0.00083653,-0.00017868,0.00017972,0.00067232,-0.0
 0076543,0.00369268,-0.00205579,-0.13569600,0.03334592,0.27102886,0.000
 15213,-0.00004584,-0.00007213,-0.00021032,0.00012299,-0.00004817,-0.00
 003325,-0.00008918,0.00017763,-0.00001735,0.00012367,0.00016723,0.0004
 0757,-0.00014594,-0.00001109,-0.00009576,0.00002978,-0.00019459,0.0000
 7636,-0.00028651,-0.00030538,0.00178415,-0.00027275,0.00443894,-0.0282
 8724,0.02166656,0.00209089,0.00290049,-0.00356396,-0.00739522,-0.28185
 978,0.21527430,-0.06381279,0.00002838,0.00003205,-0.00001916,-0.000092
 17,-0.00014757,-0.00025809,-0.00015769,0.00074717,-0.00008552,0.305116
 53,-0.00006044,0.00008891,0.00006507,0.00009741,-0.00013307,0.00001335
 ,-0.00003679,-0.00002505,-0.00014646,0.00017321,0.00009815,-0.00004316
 ,-0.00012528,0.00030177,-0.00002452,-0.00001918,-0.00013789,0.00010134
 ,-0.00023458,-0.00033490,0.00029797,0.00017864,0.00316611,-0.00103247,
 0.01199357,-0.00579302,-0.00325840,-0.00402096,-0.00270563,0.00371524,
 0.22523757,-0.19194880,0.06309491,0.00002969,0.00003737,0.00002294,-0.
 00022225,-0.00020115,-0.00009084,0.00043628,0.00045807,0.00021182,-0.2
 3325343,0.19699483,-0.00002072,0.00002740,0.00001622,0.00005291,-0.000
 06052,0.00002354,-0.00002035,-0.00000182,-0.00002842,-0.00001842,0.000
 09251,-0.00008512,-0.00008860,0.00003171,0.00032788,-0.00000945,-0.000
 03386,0.00002869,-0.00050328,0.00044309,-0.00070961,0.00273885,0.00021
 023,-0.00531442,0.03854155,-0.02990520,0.00862793,-0.00567270,0.002455
 86,0.00171349,-0.10135669,0.09054108,-0.07251749,-0.00001063,0.0000169
 5,0.00003089,0.00002349,-0.00029662,0.00066518,0.00108512,-0.00064426,
 0.00027174,0.06536242,-0.06294734,0.06691758,-0.01117617,0.00538266,0.
 01772962,0.00071842,0.00488517,-0.00149752,-0.00037811,-0.00034606,-0.
 00082641,0.00236577,0.00241587,-0.00050008,0.00463075,-0.00097645,-0.0
 0395145,-0.16071121,0.05847715,0.13173451,-0.00104469,-0.00159949,-0.0
 0223777,0.00048519,-0.00012308,0.00025188,-0.00023055,0.00037992,-0.00
 001856,0.00008863,-0.00018100,0.00013638,0.00010964,-0.00008273,-0.000
 07149,0.00038268,0.00030105,-0.00017155,0.00041929,-0.00013695,-0.0000
 2240,0.00005048,0.00003895,-0.00000833,-0.00001059,0.00000839,0.000011
 70,0.16621587,0.01175484,-0.00212156,-0.01450591,0.00476677,0.00266070
 ,0.00268357,-0.00031871,-0.00100682,0.00033370,0.00265740,0.00279420,0
 .00283352,-0.00700685,0.00495228,0.00765055,0.05859325,-0.06235691,-0.
 05040217,-0.00256316,-0.00227449,0.00039087,0.00005260,0.00041045,-0.0
 0015229,0.00035620,-0.00000522,0.00010089,-0.00014054,0.00002651,-0.00
 012377,-0.00010245,0.00003571,0.00003767,-0.00002369,0.00061141,0.0005
 2092,0.00013162,0.00013605,-0.00003248,0.00001515,0.00009113,-0.000005
 35,0.00001290,-0.00000151,-0.00001140,-0.06651678,0.05869095,-0.006283
 95,0.00304861,0.00844416,-0.00105007,0.00235658,0.00086988,-0.00092919
 ,0.00040885,-0.00013181,-0.00141039,0.00349879,-0.00381102,0.01877182,
 -0.00896136,-0.01608351,0.13129720,-0.05008231,-0.20586558,0.00139414,
 -0.00226373,0.00064680,-0.00040896,0.00033105,0.00028778,0.00006968,0.
 00003632,-0.00004799,-0.00001500,-0.00001311,-0.00001760,0.00000318,-0
 .00001678,0.00002590,0.00105235,-0.00037357,-0.00075856,-0.00103489,0.
 00070754,0.00040789,0.00008089,-0.00007074,0.00014465,-0.00000569,0.00
 000117,0.00001567,-0.14111963,0.05250772,0.21488500,-0.05409047,0.0235
 1696,-0.02900230,0.00493106,-0.00604269,0.01929718,-0.00054221,0.00407
 208,0.00273171,-0.00110184,-0.00015399,0.00021769,-0.00104587,0.005591
 76,0.00065269,0.00102545,0.00702913,-0.02369189,0.00044286,0.00030455,
 -0.00102797,-0.00057234,0.00027521,-0.00004718,0.00028057,-0.00030408,
 -0.00005002,-0.00013404,0.00017666,-0.00013698,-0.00011197,0.00007534,
 0.00007088,-0.00002748,-0.00016690,-0.00011351,-0.00000475,-0.00000026
 ,0.00004044,0.00003025,0.00000940,-0.00000698,0.00001059,-0.00000511,-
 0.00000567,-0.00059787,-0.00248172,-0.00028478,0.05071330,0.02352112,-
 0.07405582,0.09198891,0.00056181,0.00553071,-0.00855931,0.00393110,0.0
 0324268,-0.00036230,-0.00021988,-0.00093523,-0.00051850,0.00581041,0.0
 0239830,0.00073232,0.00063321,-0.00326985,0.01826525,-0.00008551,0.000
 31444,0.00088361,0.00035589,-0.00047954,0.00002359,-0.00041785,0.00015
 498,-0.00001186,0.00017726,-0.00011283,0.00015563,0.00012841,-0.000058
 46,-0.00006992,-0.00017852,-0.00017405,0.00002809,0.00001046,0.0000097
 2,-0.00002962,0.00000380,0.00003376,0.00001562,-0.00001006,0.00000724,
 0.00000618,-0.00238128,-0.00208573,-0.00101561,-0.02842053,0.07049536,
 -0.02901809,0.09200062,-0.29919451,-0.00559023,0.00963513,-0.01723544,
 0.00326364,-0.00075234,-0.00013939,0.00046662,-0.00070008,0.00012087,-
 0.00017110,0.00133417,0.00228333,0.00040884,0.00064685,-0.00152277,0.0
 0044160,-0.00019122,-0.00001153,-0.00035156,0.00024640,-0.00017216,0.0
 0037890,-0.00032520,0.00002916,-0.00013920,0.00015701,-0.00015131,-0.0
 0012882,0.00007594,0.00008515,-0.00006992,-0.00000359,-0.00009056,-0.0
 0000021,0.00000019,0.00000997,0.00001434,-0.00000009,0.00000080,0.0000
 1272,-0.00000719,-0.00000621,-0.00066317,-0.00073890,0.00051531,0.0309
 7015,-0.10038645,0.31604691,-0.03299626,0.03002607,-0.00423358,-0.1929
 7312,0.10943501,0.01248181,-0.02065331,0.02440125,-0.01241277,0.008712
 24,-0.00349228,0.00029805,-0.01055004,0.00653382,0.00119886,0.00524627
 ,0.00032035,0.00558069,0.00674546,-0.00647699,0.00371138,-0.00562388,0
 .00522549,-0.00413312,0.00736036,-0.00567493,0.00099865,-0.00248749,0.
 00257474,-0.00287980,-0.00228055,0.00123632,0.00166308,-0.00036974,0.0
 0017153,-0.00017044,-0.00011244,-0.00000520,0.00022011,0.00008643,0.00
 006519,0.00003078,0.00022975,-0.00014193,-0.00007138,-0.00126984,0.001
 11891,-0.00031702,0.00132507,-0.00318911,-0.00133841,0.26449884,0.0225
 0205,-0.01029495,0.00145330,0.11897681,-0.12832840,0.00982037,0.031567
 28,-0.01890756,0.01526756,-0.00513593,0.00701341,0.00295377,0.00767512
 ,-0.00620858,-0.00218103,0.00172483,0.00654072,-0.00034687,-0.00593978
 ,0.00445998,-0.00333286,0.00448790,-0.00414492,0.00334447,-0.00592359,
 0.00450825,-0.00082185,0.00198645,-0.00207351,0.00230132,0.00184441,-0
 .00098160,-0.00132825,0.00054290,-0.00062857,0.00012996,0.00008525,-0.
 00005198,-0.00018864,0.00005820,0.00014349,0.00000380,-0.00017606,0.00
 012288,0.00005913,0.00079866,-0.00047937,0.00015493,-0.00335131,-0.000
 94397,-0.00048789,-0.18605495,0.20593523,0.02411915,-0.01927425,0.0127
 2840,-0.02347480,0.03610649,-0.11013506,-0.03941439,0.03500687,-0.0151
 1878,0.00649001,-0.00157208,-0.00790912,-0.00310034,0.00096232,0.00373
 839,0.00028751,0.00352260,-0.00635666,0.00168722,-0.00185394,0.0015680
 4,-0.00135318,0.00131217,-0.00119329,0.00193473,-0.00150540,0.00030497
 ,-0.00066218,0.00067958,-0.00074879,-0.00062914,0.00034739,0.00043779,
 -0.00157031,0.00115307,-0.00021699,-0.00012020,0.00006048,0.00006418,0
 .00005691,-0.00001561,0.00008885,0.00005843,-0.00003568,-0.00001624,0.
 00088966,-0.00072718,0.00043540,-0.00072740,-0.00093424,0.00200157,0.0
 3616312,-0.17636314,0.58808081,0.00219957,-0.00130818,-0.00118841,-0.0
 0779998,0.01359283,-0.03782220,-0.00448591,0.00436775,0.00158289,0.000
 87463,0.00045099,-0.00120922,0.00038529,-0.00031262,0.00033640,-0.0005
 4376,-0.00006130,-0.00030730,-0.00019809,0.00025349,-0.00000050,0.0002
 3840,-0.00020939,0.00012949,-0.00030441,0.00018476,-0.00003857,0.00010
 147,-0.00010469,0.00011653,0.00008972,-0.00004860,-0.00006156,-0.00040
 641,0.00000784,-0.00006493,-0.00000577,0.00000844,-0.00001247,0.000010
 64,0.00002220,0.00001599,-0.00000713,0.00000853,0.00000566,0.00019298,
 -0.00013382,0.00002193,-0.00065065,0.00008830,0.00146326,-0.02951696,0
 .01886106,0.00512504,0.03909244,-0.00245380,0.00179665,-0.00008915,0.0
 0400902,-0.01329604,0.02799542,0.00413243,-0.00068995,-0.00101044,0.00
 036155,0.00046653,0.00121287,-0.00058401,0.00056105,-0.00020427,-0.000
 08979,-0.00075360,0.00030128,0.00049575,-0.00026525,0.00019226,-0.0003
 6199,0.00032801,-0.00024293,0.00042210,-0.00038603,0.00004554,-0.00015
 539,0.00016194,-0.00018129,-0.00013961,0.00007580,0.00010159,0.0000119
 4,-0.00040380,-0.00009108,0.00000257,-0.00000464,0.00001561,0.00002465
 ,0.00002871,-0.00000002,0.00001733,-0.00000468,-0.00000460,-0.00017022
 ,0.00014733,-0.00001851,0.00051859,-0.00017614,-0.00075965,0.02946424,
 -0.05544198,0.12075871,-0.03483866,0.06807520,0.00312986,-0.00324614,0
 .00358905,-0.00170924,0.00159528,-0.00423991,0.00246868,-0.00165801,0.
 00151006,-0.00087200,0.00096583,-0.00018701,0.00135851,-0.00095171,-0.
 00007780,-0.00019948,0.00022280,-0.00102815,-0.00091351,0.00086036,-0.
 00057352,0.00070454,-0.00066319,0.00055726,-0.00093280,0.00069860,-0.0
 0013060,0.00030711,-0.00032017,0.00036225,0.00028105,-0.00014862,-0.00
 021255,-0.00008015,-0.00007983,0.00010338,0.00000994,-0.00000097,-0.00
 002320,0.00000683,0.00000681,0.00000227,-0.00002732,0.00001927,0.00000
 856,0.00015899,-0.00011887,0.00002757,-0.00015809,0.00042546,-0.001167
 04,-0.03483019,0.14996787,-0.47102531,0.03272001,-0.14806638,0.4711319
 9,0.00408319,0.00170978,-0.00216470,-0.00816153,0.00843180,0.01407726,
 -0.15153379,0.05400130,0.10847840,-0.03310421,0.01962415,0.03351313,0.
 00200024,0.00413421,-0.00490874,-0.00438954,0.00134210,0.00350478,0.00
 101787,-0.00154840,0.00332186,-0.00164719,0.00148998,-0.00120212,0.002
 47557,-0.00192093,0.00042121,-0.00093160,0.00096436,-0.00104348,-0.000
 87381,0.00054025,0.00051827,0.00062437,-0.00311473,-0.00037058,-0.0005
 3446,0.00019249,0.00000612,0.00011453,-0.00005195,0.00006501,0.0000750
 8,-0.00005409,-0.00004736,-0.00025250,-0.00008635,0.00017138,-0.000138
 13,-0.00027191,0.00024816,0.00456710,-0.00444405,-0.00558786,0.0010010
 1,-0.00003163,-0.00115068,0.42629084,0.00330803,0.00231711,0.00339786,
 0.00167968,0.00602743,0.00462076,0.06472792,-0.07602783,-0.03608621,0.
 02745901,-0.00721342,-0.02620865,0.00288636,0.00216803,0.00601373,0.00
 084087,-0.00113454,-0.00287255,0.00004774,0.00056352,-0.00185496,0.000
 66658,-0.00064057,0.00040481,-0.00108414,0.00084523,-0.00019573,0.0004
 2777,-0.00042778,0.00046642,0.00043784,-0.00021220,-0.00020573,-0.0030
 8936,-0.00127826,-0.00088253,0.00022533,-0.00042422,-0.00003569,-0.000
 01221,0.00007849,-0.00000864,-0.00004460,0.00001062,0.00002286,-0.0001
 1134,-0.00016880,-0.00021892,-0.00053633,-0.00005039,0.00008421,-0.005
 55603,-0.00017761,0.00263474,-0.00071845,0.00085501,0.00079195,-0.2919
 9579,0.26078594,-0.00818602,0.00779987,-0.00120300,0.03951949,-0.01397
 841,-0.04771169,0.06805789,-0.00653725,-0.20113434,0.00398919,-0.00462
 559,0.01234507,-0.00020652,0.00257615,-0.00326487,0.00539236,-0.004252
 39,-0.00011302,-0.00269315,0.00254219,-0.00205288,0.00190071,-0.001863
 29,0.00173947,-0.00273276,0.00210972,-0.00042199,0.00097875,-0.0010119
 1,0.00112593,0.00090390,-0.00048757,-0.00059954,-0.00046634,-0.0008125
 4,0.00057599,-0.00011725,0.00005460,-0.00015183,-0.00008466,0.00010078
 ,-0.00007924,-0.00008237,0.00004846,0.00002854,0.00026589,-0.00028802,
 0.00004447,0.00124449,-0.00064443,-0.00142027,-0.00139654,-0.00042909,
 0.00192452,0.00143697,-0.00109979,0.00072591,-0.00558738,-0.08474100,0
 .35955588,-0.00129979,0.00049550,-0.00059508,0.00152330,0.00062532,-0.
 00138159,-0.02668625,0.01883009,-0.00648097,-0.00042561,0.00009902,0.0
 0392697,0.00028457,0.00096148,-0.00066580,0.00066426,-0.00023942,-0.00
 011301,-0.00039188,0.00043702,-0.00003557,0.00038012,-0.00019431,0.000
 27285,-0.00044893,0.00029502,-0.00006668,0.00014800,-0.00014999,0.0001
 6588,0.00012617,-0.00008452,-0.00009761,-0.00008033,-0.00047981,-0.000
 03204,-0.00007803,-0.00000819,-0.00005691,-0.00001499,0.00001248,-0.00
 001654,-0.00000975,0.00001072,0.00000353,0.00001181,-0.00008557,-0.000
 00301,0.00025848,-0.00004712,-0.00019751,0.00006209,-0.00008525,-0.000
 17196,-0.00026709,-0.00063507,-0.00027207,-0.24068304,0.20044111,-0.10
 213662,0.26692690,0.00059408,-0.00129226,0.00007211,-0.00163906,0.0025
 5915,0.00194799,0.01017824,-0.01097405,0.00095228,0.00007128,0.0014251
 1,-0.00128656,0.00077455,0.00065118,0.00052986,-0.00036044,0.00050699,
 0.00019775,0.00027452,-0.00003908,0.00011651,-0.00005586,0.00027719,-0
 .00008532,0.00019494,-0.00021766,0.00002115,-0.00008015,0.00008529,-0.
 00008857,-0.00008793,0.00002749,0.00004509,-0.00047164,-0.00035307,-0.
 00019058,-0.00004188,-0.00008181,0.00000955,0.00001049,-0.00001453,0.0
 0001105,0.00000916,-0.00000025,-0.00000137,-0.00006244,-0.00005632,-0.
 00001692,-0.00010678,0.00015480,0.00017209,0.00001850,-0.00006097,-0.0
 0026291,-0.00011048,-0.00107413,-0.00030036,0.21108943,-0.18589575,0.1
 0553951,-0.22019853,0.19437268,-0.00096801,0.00034481,0.00052916,0.007
 15244,-0.00429059,-0.00165733,0.02612192,-0.02288193,0.01098443,0.0040
 3258,-0.00136362,-0.00483416,0.00003819,0.00001519,0.00119582,0.000343
 53,-0.00013598,-0.00013830,0.00057554,-0.00033050,-0.00014805,-0.00024
 798,0.00029551,-0.00021696,0.00031049,-0.00025437,0.00003422,-0.000096
 97,0.00010339,-0.00011982,-0.00008475,0.00003563,0.00007414,-0.0000631
 1,-0.00016784,0.00005787,0.00007007,-0.00008323,0.00001092,-0.00000922
 ,0.00000565,0.00000014,0.00000924,-0.00000550,0.00000161,-0.00009026,0
 .00004692,-0.00003441,0.00002752,0.00000759,0.00001811,-0.00056328,0.0
 0002313,0.00134732,-0.00224902,0.00114482,0.00064678,-0.14226268,0.134
 87328,-0.11991313,0.10795375,-0.10738235,0.11216163\\0.00012329,-0.000
 09241,0.00000860,-0.00010424,0.00009748,-0.00008016,-0.00014019,0.0000
 8187,0.00007768,0.00032129,-0.00018783,-0.00017727,-0.00005832,-0.0000
 1892,0.00023194,-0.00008625,0.00011056,-0.00017901,0.00000332,0.000007
 12,-0.00003599,-0.00002933,0.00002539,-0.00001490,0.00002575,-0.000012
 86,-0.00002247,0.00000622,-0.00000095,-0.00001353,-0.00000123,-0.00000
 928,0.00003836,-0.00004997,0.00003140,0.00001934,-0.00000281,0.0000028
 3,-0.00000294,-0.00000162,-0.00000037,0.00000585,0.00000558,-0.0000001
 1,-0.00001497,0.00001363,-0.00001230,0.00000880,0.00001414,-0.00003092
 ,0.00007759,0.00002086,-0.00000323,-0.00004529,0.00002117,-0.00003984,
 0.00009179,-0.00008921,0.00007974,-0.00005472,0.00000793,-0.00002738,0
 .00008130\\\@


 "THE ACADEMIC HIERARCHY"


 THE PRESIDENT:
   LEAPS TALL BUILDINGS IN A SINGLE BOUND,
     IS MORE POWERFUL THAN A LOCOMOTIVE,
       IS FASTER THAN A SPEEDING BULLET,
         WALKS ON WATER,
           GIVES POLICY TO GOD.

 THE VICE PRESIDENT FOR ACADEMIC AFFAIRS:
   LEAPS SHORT BUILDINGS IN A SINGLE BOUND,
     IS MORE POWERFUL THAN A SWITCH ENGINE,
       IS JUST AS FAST AS A SPEEDING BULLET,
         WALKS ON WATER IF SEA IS CALM,
           TALKS WITH GOD.

 PROFESSOR:
   LEAPS SHORT BUILDINGS WITH A RUNNING START AND FAVORABLE WINDS,
     IS ALMOST AS POWERFUL AS A SWITCH ENGINE,
       CAN FIRE A SPEEDING BULLET,
         WALKS ON WATER IN AN INDOOR SWIMMING POOL,
          TALKS WITH GOD IF SPECIAL REQUEST IS APPROVED.

 ASSOCIATE PROFESSOR:
   BARELY CLEARS A QUONSET HUT,
     LOSES TUG OF WAR WITH LOCOMOTIVE,
       MISFIRES FREQUENTLY,
         SWIMS WELL,
           IS OCCASIONALLY ADDRESSED BY GOD.

 ASSISTANT PROFESSOR:
   MAKES HIGH MARKS ON WALLS WHEN TRYING TO LEAP TALL BUILDINGS,
     IS RUN OVER BY LOCOMOTIVES,
       CAN SOMETIMES HANDLE A GUN WITHOUT INFLICTING SELF INJURY,
         DOG PADDLES,
           TALKS TO ANIMALS.

 GRADUATE STUDENT:
   RUNS INTO BUILDINGS,
     RECOGNIZES LOCOMOTIVES TWO OUT OF THREE TIMES,
       IS NOT ISSUED AMMUNITION,
         CAN STAY AFLOAT WITH A LIFE JACKET,
           TALKS TO WALLS.

 UNDERGRADUATE AND WORK STUDY STUDENT:
   FALLS OVER DOORSTEP WHEN TRYING TO ENTER BUILDINGS,
     SAYS, "LOOK AT THE CHOO-CHOO,"
       WETS HIMSELF WITH A WATER PISTOL,
        PLAYS IN MUD PUDDLES,
          MUMBLES TO HIMSELF.

 DEPARTMENT SECRETARY:
   LIFTS TALL BUILDINGS AND WALKS UNDER THEM,
     KICKS LOCOMOTIVES OFF THE TRACKS,
       CATCHES SPEEDING BULLETS IN HER TEETH AND EATS THEM,
         FREEZES WATER WITH A SINGLE GLANCE,
           IS GOD.
 Job cpu time:       0 days  1 hours 25 minutes  9.3 seconds.
 File lengths (MBytes):  RWF=    296 Int=      0 D2E=      0 Chk=     16 Scr=      1
 Normal termination of Gaussian 09 at Thu Aug 23 02:08:06 2018.
