30
1224201.log	Energy: -499269.0656224
C         -4.91162        0.89615       -0.00121
C         -4.75635       -0.29838       -0.71189
C         -3.52617       -0.96288       -0.70400
C         -2.45370       -0.41973        0.01405
C         -2.60553        0.77360        0.73162
C         -3.83914        1.42956        0.72238
C         -1.14820       -1.14789        0.04288
O         -0.94139       -2.22889        0.55323
N         -0.13206       -0.49643       -0.70555
N          1.20299       -0.94371       -0.67340
C          2.01012       -0.48269        0.40396
C          1.83096        0.61900        1.18400
C          1.45807        1.85089        0.50005
C          2.29928        2.19832       -0.50214
C          3.53362        1.49926       -0.90618
C          4.05762        0.28998       -0.61076
C          3.48802       -0.80957        0.22106
O          4.09276       -1.74863        0.66283
H         -5.87225        1.41109       -0.00742
H         -5.59464       -0.71577       -1.26879
H         -3.40275       -1.90122       -1.24689
H         -1.77252        1.17945        1.30578
H         -3.96730        2.35500        1.28259
H         -0.22623        0.47716       -1.00976
H          1.23875       -1.97980       -0.77065
H          2.33609        0.72429        2.14289
H          0.62147        2.45456        0.83191
H          2.11727        3.11853       -1.06429
H          4.14727        2.13819       -1.56716
H          5.04554        0.02592       -1.00691
