27
14809009.log	Energy: -384039.7908564
C          1.34562        2.06201        0.02422
C         -0.08614        1.47431       -0.00681
C          0.06054       -0.03253       -0.00637
C         -0.94626       -0.92414       -0.00142
C         -2.35111       -0.60728        0.00191
C         -3.49363       -1.37590        0.03904
C         -4.61461       -0.47098        0.02184
C         -4.10285        0.79757       -0.02552
O         -2.70226        0.76134       -0.03876
C          1.50050       -0.34457       -0.00516
C          2.14559       -1.57610       -0.01991
C          3.55018       -1.60192       -0.01594
C          4.28503       -0.41541        0.00234
C          3.64000        0.83364        0.01712
C          2.25274        0.86203        0.01281
H          1.50875        2.68119        0.92502
H          1.53287        2.71822       -0.84470
H         -0.68957        1.80683        0.86033
H         -0.64992        1.80738       -0.90013
H         -0.73547       -1.99919        0.00251
H         -3.56259       -2.44434        0.07473
H         -5.64551       -0.76715        0.04344
H         -4.49497        1.78756       -0.05411
H          1.57889       -2.50474       -0.03441
H          4.06721       -2.55984       -0.02739
H          5.37399       -0.45293        0.00498
H          4.22086        1.75177        0.03100
