20
148828.log	Energy: -648511.4759821
C         -1.02807       -1.88057        0.02038
C         -0.30469       -0.65928        0.00746
N         -1.21163        0.38628       -0.00492
C         -2.50352       -0.16069        0.00113
C         -2.39756       -1.56982        0.01545
N         -3.69482        0.66106       -0.00771
O         -3.52727        1.87504       -0.00313
O         -4.77578        0.10090       -0.01853
C          1.13574       -0.45035        0.00728
C          2.09856       -1.42222       -0.01551
S          3.67854       -0.70160       -0.02045
C          2.93561        0.92740        0.02695
N          1.60309        0.88951        0.04352
N          3.71633        2.05809       -0.06502
H         -0.59523       -2.86222        0.03094
H         -0.99685        1.37724       -0.01233
H         -3.22844       -2.25503        0.02174
H          1.96701       -2.49038       -0.03178
H          4.66011        2.02301        0.29360
H          3.25376        2.95393        0.05825
