27
19826049.log	Energy: -417825.3402949
C         -1.62901        2.54347        0.53168
C         -1.90518        1.12344        0.18368
C         -0.92229        0.16874       -0.02875
C          0.52499        0.44374       -0.12964
C          1.03999        1.67379       -0.43460
C          2.46583        1.90034       -0.43790
C          3.34681        0.92228       -0.13723
C          2.89080       -0.44205        0.16562
O          3.66441       -1.34419        0.45507
C          1.42800       -0.68317        0.06615
C          0.97086       -1.97630        0.08407
C         -0.40941       -2.27742       -0.06993
C         -1.31083       -1.23528       -0.12544
N         -2.69011       -1.53811       -0.22706
C         -3.65743       -0.54729       -0.12692
C         -3.29250        0.74884        0.10297
H         -0.81129        2.62684        1.27116
H         -2.49818        3.06125        0.95823
H         -1.30737        3.12055       -0.35319
H          0.41601        2.51730       -0.70788
H          2.80616        2.90799       -0.68486
H          4.42212        1.07775       -0.10890
H          1.68148       -2.80462        0.20694
H         -0.71298       -3.31572       -0.12644
H         -2.97073       -2.50969       -0.35387
H         -4.70212       -0.86176       -0.22940
H         -4.05150        1.52166        0.21460
