21
21986279.log	Energy: -322057.9643332
C         -3.03831       -1.25079        0.71013
C         -2.04934       -1.27488       -0.45532
C         -0.96056       -0.29649       -0.25772
C          0.37483       -0.43797       -0.14763
C          1.27865       -1.56818       -0.16936
C          2.60603       -1.37077       -0.01457
C          3.17271       -0.03407        0.17200
C          2.40812        1.07845        0.19879
C          0.96716        0.95684        0.04573
N          0.05154        1.89562        0.04686
C         -1.25430        1.23018       -0.13350
O         -2.31053        1.78197       -0.16932
H         -2.55612       -1.51067        1.65931
H         -3.85731       -1.96091        0.54730
H         -3.49036       -0.25441        0.83074
H         -1.64086       -2.29986       -0.58502
H         -2.58623       -1.03989       -1.40450
H          0.84417       -2.55841       -0.30810
H          3.30978       -2.20336       -0.02231
H          4.25795        0.02469        0.28618
H          2.81242        2.08379        0.33167
