18
23323007.log	Energy: -365113.6265946
C          3.22807       -0.73463        0.01396
C          3.24136        0.62334        0.00047
O          2.09375        1.38219       -0.01416
C          0.86802        0.70350       -0.00592
C         -0.25200        1.46420        0.00070
C         -1.51203        0.77340        0.00426
C         -2.82791        1.12797        0.01103
N         -3.63121       -0.09485        0.00431
N         -2.91243       -1.12649       -0.00587
C         -1.50162       -0.73415       -0.00512
C         -0.38982       -1.48434       -0.00969
C          0.90744       -0.78390       -0.00341
N          2.02793       -1.46492        0.00768
H          4.13659       -1.34634        0.02845
H          4.08974        1.30348       -0.00221
H         -0.22994        2.55231        0.00257
H         -3.31831        2.08336        0.02057
H         -0.38711       -2.57884       -0.01664
