35
23824766.log	Energy: -496181.2115273
C         -4.79819       -0.60095        0.99826
C         -3.55745       -1.08883        0.24560
C         -3.88534       -1.46989       -1.20188
N         -2.54660        0.01277        0.28294
C         -1.21018       -0.21091        0.07534
C         -0.24433        0.82542       -0.09515
N          1.09051        0.54845       -0.18926
C          1.46136       -0.75893       -0.13768
N          0.51092       -1.80234        0.02740
N         -0.72518       -1.54672        0.11770
N          2.79123       -1.15761       -0.37385
C          3.89516       -0.19833       -0.04891
C          4.02785        0.03144        1.46166
C          5.18498       -0.77416       -0.64210
C         -0.66296        2.25936       -0.18895
O         -1.84893        2.59263       -0.17498
N          0.31851        3.22657       -0.29051
H         -5.27454        0.25868        0.51133
H         -4.55419       -0.30033        2.02579
H         -5.55096       -1.39574        1.06034
H         -3.12509       -1.98371        0.77419
H         -4.24948       -0.61804       -1.78661
H         -3.00166       -1.87061       -1.71663
H         -4.65782       -2.24633       -1.23830
H         -2.89225        0.97715        0.11506
H          2.98203       -2.12596       -0.09069
H          3.65189        0.77623       -0.55380
H          4.23134       -0.89510        2.00877
H          4.84609        0.72493        1.68525
H          3.11164        0.46701        1.88067
H          5.07552       -0.96984       -1.71764
H          6.01707       -0.07165       -0.51868
H          5.48260       -1.71603       -0.16787
H          1.30062        2.99774       -0.32663
H          0.05738        4.19732       -0.36285
