27
2468177.log	Energy: -633307.2243905
C          4.77533        0.30961       -0.00042
C          4.16389        1.56347       -0.00202
C          2.76151        1.68667       -0.00079
C          2.00162        0.52997        0.00055
C          2.63136       -0.76236        0.00050
C          4.01276       -0.87286        0.00057
C          1.57811       -1.79408        0.00232
C          0.37724       -1.16353        0.00293
C          0.53989        0.31149        0.00184
C         -0.46364        1.20493        0.00019
C         -1.87244        0.82589        0.00042
C         -2.86215        1.83655        0.00094
C         -4.21246        1.50707        0.00082
C         -4.61105        0.15931       -0.00027
C         -3.65426       -0.85116       -0.00066
C         -2.29273       -0.51276       -0.00057
S         -1.19056       -1.87589       -0.00218
H          5.86250        0.24031       -0.00072
H          4.77696        2.46321       -0.00435
H          2.29716        2.66948       -0.00126
H          4.50048       -1.84405        0.00169
H          1.78517       -2.84840        0.00248
H         -0.24779        2.27722       -0.00164
H         -2.55863        2.88307        0.00136
H         -4.96701        2.29218        0.00150
H         -5.67112       -0.09117       -0.00084
H         -3.96658       -1.89696       -0.00128
