23
253693.log	Energy: -449804.2824815
C         -3.46350       -1.43126        0.35154
O         -2.81112       -0.41673       -0.46218
C         -1.49765       -0.13016       -0.13006
C         -1.17691        1.20044       -0.11343
C          0.23202        1.66526        0.19776
O          0.43857        2.79061        0.57233
C          1.28595        0.59448        0.05031
C          0.92533       -0.76735        0.01658
C         -0.50763       -1.21199        0.05584
O         -0.78929       -2.38099        0.22090
C          1.94538       -1.72424       -0.07541
C          3.27435       -1.30149       -0.15310
C          3.54633        0.07691       -0.13885
N          2.57045        1.01677       -0.03268
N         -2.08088        2.19614       -0.45736
H         -4.47361       -1.43540       -0.07258
H         -3.46451       -1.13287        1.40097
H         -2.96875       -2.40138        0.21136
H          1.68522       -2.78875       -0.08703
H          4.08582       -2.02448       -0.22582
H          4.57255        0.46205       -0.21023
H         -1.89133        3.13275       -0.12235
H         -3.05965        1.93092       -0.47951
