21
2858619.log	Energy: -731685.2350161
C         -1.42280        1.36189       -0.02158
C         -1.05221        0.02950       -0.01173
O         -2.19592       -0.79671        0.00022
C         -3.27664        0.09377       -0.00222
C         -2.85164        1.40598       -0.01548
N         -4.59070       -0.53902        0.00860
O         -5.54856        0.21557        0.00081
O         -4.63269       -1.75340        0.02419
C          0.16104       -0.74452       -0.01236
C          1.41770       -0.26626       -0.00760
C          1.92186        1.16960        0.00884
O          1.33862        2.21868        0.01843
N          3.35000        1.04580        0.01523
C          3.76285       -0.30740        0.00007
S          5.28491       -0.86940        0.00291
N          2.59104       -1.08249       -0.01750
H         -0.76508        2.22331       -0.02916
H         -3.46895        2.29206       -0.02035
H         -0.00989       -1.83696       -0.02047
H          4.00131        1.83031        0.02563
H          2.57903       -2.09687       -0.02335
