31
2874685.log	Energy: -522675.5073933
C          3.57669       -2.11306        1.55300
O          3.39394       -1.19921        0.45839
C          3.17045        0.17006        0.87514
C          2.96518        0.91964       -0.44820
N          1.58367        0.77274       -0.95523
C          0.64377        1.77090       -0.75483
O          0.92050        2.84437       -0.24276
C         -0.76109        1.45079       -1.26361
C         -1.56601        0.79033       -0.18959
C         -2.03226        1.59214        0.87128
C         -2.81233        1.05531        1.89059
C         -3.15423       -0.30639        1.87635
C         -2.69755       -1.11891        0.84742
C         -1.89255       -0.58014       -0.18060
N         -1.43195       -1.52629       -1.21367
O         -0.47723       -1.21511       -1.91546
O         -2.02537       -2.58732       -1.31077
H          3.72175       -3.07287        1.04018
H          2.68453       -2.14504        2.18470
H          4.46503       -1.84861        2.13373
H          2.28989        0.21898        1.53750
H          4.06196        0.53434        1.41457
H          3.20052        2.00338       -0.31202
H          3.66661        0.51258       -1.21640
H          1.31729       -0.15833       -1.29105
H         -1.23801        2.41299       -1.56847
H         -0.71966        0.85366       -2.20469
H         -1.75709        2.65228        0.89088
H         -3.16155        1.69376        2.70504
H         -3.77328       -0.72315        2.67089
H         -2.95506       -2.18493        0.82061
