26
322497.log	Energy: -469526.9647187
C          2.52495       -2.38299        0.09832
C          1.41349       -1.39827        0.05037
C          1.68543        0.03539       -0.03059
N          0.70529        0.93205       -0.07234
C         -0.58262        0.47121       -0.04005
C         -1.71191        1.39014       -0.09587
N         -2.99607        0.92949       -0.06291
C         -3.17376       -0.45333        0.02679
N         -2.17219       -1.40821        0.08055
C         -0.89082       -0.94524        0.04518
N          0.16450       -1.86146        0.09308
N         -4.46878       -0.90422        0.06609
N         -1.53223        2.74483       -0.17452
C          3.10008        0.55502       -0.10484
O          3.93734       -0.01223       -0.76864
C          3.39134        1.78158        0.70001
H          3.25986       -2.19479       -0.70875
H          2.16791       -3.42169       -0.01155
H          3.07371       -2.32843        1.05035
H         -4.65971       -1.89449        0.11501
H         -5.23965       -0.25756        0.01931
H         -2.32485        3.36671       -0.23522
H         -0.60490        3.13851       -0.23362
H          3.19477        1.62266        1.76950
H          4.43987        2.09494        0.59086
H          2.75355        2.62360        0.38764
