21
4356513.log	Energy: -627968.8956463
C          3.02899        2.03865       -0.33365
C          3.47269        0.62918       -0.65592
O          2.29820       -0.25003       -0.72346
C          1.73199       -0.65092        0.44836
O          2.15173       -0.39677        1.54551
C          0.50358       -1.52486        0.10097
O          0.61062       -2.71397       -0.05019
C         -0.78513       -0.78964        0.01011
C         -1.98909       -1.35320       -0.31277
S         -3.22819       -0.13786       -0.30647
C         -2.01312        1.09517        0.17150
N         -0.78989        0.59255        0.29578
N         -2.37282        2.42912        0.25083
H          2.23981        2.37776       -1.01859
H          3.86027        2.74955       -0.39440
H          2.61080        2.09911        0.68364
H          3.86762        0.51407       -1.68209
H          4.17520        0.21602        0.08855
H         -2.19273       -2.38825       -0.54711
H         -3.29781        2.64173        0.60229
H         -1.65705        3.06402        0.59856
