32
5394480.log	Energy: -476861.2698333
C         -4.86644       -1.38969       -1.42587
C         -3.93379       -0.83952       -0.39684
C         -3.21772        0.33905       -0.66025
C         -2.33420        0.84936        0.29803
C         -2.16206        0.19236        1.52541
C         -2.87916       -0.97790        1.78530
C         -3.75820       -1.49687        0.83123
C         -1.58817        2.09659        0.01082
N         -0.31285        2.26930       -0.15867
N          0.55580        1.21392       -0.08875
C          1.95112        1.45715       -0.28016
O          2.42673        2.54595       -0.48129
C          2.73474        0.17887       -0.18254
C          2.61659       -0.80270       -1.17390
C          3.38385       -1.96770       -1.08485
C          4.26160       -2.14856       -0.01035
C          4.37936       -1.16238        0.97513
C          3.61817        0.00679        0.89040
H         -5.55808       -2.13710       -1.01535
H         -4.30882       -1.87763       -2.23945
H         -5.48234       -0.60222       -1.88329
H         -3.34709        0.85588       -1.60975
H         -1.48721        0.60133        2.27495
H         -2.75382       -1.48891        2.73984
H         -4.30933       -2.41055        1.04391
H         -2.20803        3.00651       -0.07180
H          0.22225        0.25699        0.09255
H          1.93984       -0.65570       -2.01588
H          3.30013       -2.73325       -1.85507
H          4.85851       -3.05786        0.05660
H          5.06869       -1.30208        1.80717
H          3.71677        0.78551        1.64850
