28
5488104.log	Energy: -461972.6744373
C         -2.65395        0.37284        1.58636
C         -3.14154        0.07426        0.17951
C         -2.20855        0.54135       -0.95293
C         -0.75749        0.64911       -0.57815
C          0.05209       -0.54823       -0.41098
C          1.41849       -0.37967       -0.06660
C          1.97379        0.92147        0.08989
C          1.18673        2.04332       -0.07231
C         -0.19638        1.89078       -0.40835
N          1.68184        3.35880        0.19990
N          2.32030       -1.49475        0.15574
O          1.87372       -2.64223        0.07209
O          3.48931       -1.26170        0.42509
N         -0.50325       -1.78255       -0.63215
O         -3.25089       -1.36010       -0.03149
H         -1.75019       -0.20107        1.83696
H         -3.41003        0.14784        2.34618
H         -2.38359        1.43198        1.70127
H         -4.16936        0.47705        0.01556
H         -2.32929       -0.15652       -1.81649
H         -2.57648        1.51656       -1.33624
H          3.03414        0.99820        0.35376
H         -0.80414        2.79161       -0.51767
H          2.69400        3.41373        0.23770
H          1.32657        4.06628       -0.43246
H          0.03985       -2.63056       -0.45529
H         -1.51850       -1.89189       -0.68766
H         -3.58146       -1.81289        0.76584
