17
555022.log	Energy: -341383.8672817
C          2.55434        1.28583        0.00026
C          3.06068       -0.01339        0.00238
C          2.20917       -1.13345        0.00174
C          0.84301       -0.89355        0.00010
C          0.31283        0.44370       -0.00219
C          1.16752        1.53108       -0.00311
C         -1.14766        0.32475       -0.00379
C         -1.48786       -1.12966       -0.00196
N         -0.24077       -1.81639       -0.00126
O         -2.56762       -1.67121        0.00114
N         -2.01860        1.29545        0.00018
N         -2.76590        2.13919        0.00450
H          3.23949        2.13241        0.00133
H          4.13912       -0.17319        0.00409
H          2.61415       -2.14064        0.00231
H          0.79232        2.55084       -0.00593
H         -0.13942       -2.81945        0.00452
