20
57237072.log	Energy: -365880.7209611
C         -2.86338       -0.81000        0.00363
C         -1.84357       -1.72211        0.00097
C         -0.45402       -1.31151       -0.00148
C          0.69196       -2.05257        0.00033
N          1.98033       -1.43153       -0.00506
C          2.19278       -0.04648        0.00081
O          3.32781        0.40127        0.00799
C          0.96437        0.77972       -0.00268
C          0.69800        2.12922        0.00021
N         -0.71690        2.30247       -0.00928
C         -1.34582        1.03796       -0.00094
C         -2.65415        0.60597        0.00363
N         -0.28842        0.10323       -0.00530
H         -3.90083       -1.15423        0.00533
H         -2.03683       -2.79066        0.00058
H          0.68557       -3.13853        0.00007
H          2.79442       -2.04386        0.00180
H          1.37824        2.96614        0.00026
H         -1.19354        3.18577        0.03209
H         -3.49162        1.28483        0.00666
