38
68190969.log	Energy: -468464.3710009
C         -2.50856       -2.20798       -0.83792
C         -2.61524       -0.85077       -0.11676
C         -3.56576        0.05842       -0.91932
C         -3.16406       -1.06422        1.30586
C         -1.25225       -0.17168        0.00228
C         -0.06288       -0.78621       -0.16322
C          1.24090       -0.12873       -0.03554
C          1.27790        1.23570       -0.06725
C         -0.02300        2.00533       -0.20716
O         -0.09096        3.06994       -0.76363
C         -1.24678        1.25907        0.39033
O         -2.02441        1.83392        1.10650
N          2.39360        2.06801        0.07015
C          2.48971       -1.00909        0.06130
C          3.21310       -0.97219       -1.30084
C          3.42821       -0.51337        1.18153
C          2.13502       -2.47550        0.39133
H         -3.49972       -2.65923       -0.96332
H         -1.90358       -2.92532       -0.27492
H         -2.07501       -2.10035       -1.83727
H         -4.52945       -0.43036       -1.09479
H         -3.77950        0.99332       -0.38421
H         -3.14729        0.32098       -1.89546
H         -2.52313       -1.72829        1.89250
H         -3.23059       -0.10928        1.84856
H         -4.16826       -1.49740        1.28680
H         -0.03083       -1.85344       -0.41721
H          3.30238        1.65093       -0.09463
H          2.29999        3.00272       -0.31527
H          3.50304        0.04049       -1.59128
H          4.12268       -1.58175       -1.28315
H          2.57165       -1.36367       -2.09840
H          2.85925       -0.21743        2.07148
H          4.13268       -1.29337        1.49007
H          4.03407        0.34720        0.87951
H          1.61267       -2.55150        1.35198
H          1.50085       -2.93227       -0.37648
H          3.03805       -3.09157        0.46389
