25
68553702.log	Energy: -484713.5875098
C          1.56092        2.03583        0.00271
C          0.21255        1.96587       -0.00301
C         -0.43757        0.68117       -0.00272
C         -1.72810        0.26405       -0.00314
C         -1.71219       -1.23144       -0.00303
C         -2.84663       -1.94966        0.00246
C         -4.11597       -1.18366        0.01046
N         -4.20632        0.11000        0.00882
C         -3.02820        0.97126       -0.00183
O         -3.15848        2.16840       -0.00881
N         -0.33174       -1.68244       -0.00652
C          0.40678       -0.59262       -0.00494
C          1.86312       -0.46279       -0.00310
C          2.41358        0.84480        0.00322
C          3.82173        0.95941        0.00889
N          4.64971       -0.11265        0.00581
C          4.10118       -1.35535       -0.00127
C          2.71373       -1.57343       -0.00599
H          2.07405        3.00192        0.00540
H         -0.43097        2.85282       -0.00597
H         -2.87852       -3.03737        0.00247
H         -5.04895       -1.77276        0.01922
H          4.31072        1.94268        0.01493
H          4.80942       -2.19430       -0.00304
H          2.30101       -2.58509       -0.01153
