24
69764492.log	Energy: -447967.9434727
C          1.44138       -2.61274       -0.28509
C          0.48227       -1.57922       -0.29177
C          0.91704       -0.28288       -0.08860
C          2.34348       -0.06928        0.05240
N          2.60068        1.31824        0.15470
C          1.37406        2.05228        0.05383
O          1.32473        3.25513        0.08159
C          0.26011        1.02441       -0.04884
C         -1.02789        1.39636       -0.07786
C         -2.17506        0.51359       -0.04042
C         -3.33805        0.50428       -0.82779
N         -4.19430       -0.50433       -0.39862
C         -3.58949       -1.10859        0.65172
N         -2.33705       -0.52397        0.90110
N          3.27671       -1.04330        0.06248
C          2.79455       -2.31705       -0.09970
H          1.12438       -3.64255       -0.43552
H         -0.56818       -1.80990       -0.47036
H          3.52782        1.71842        0.23156
H         -1.28392        2.46992       -0.12647
H         -3.58980        1.14238       -1.65884
H         -3.99483       -1.92660        1.22914
H         -1.68901       -0.74158        1.63701
H          3.55909       -3.10461       -0.08407
