30
69930327.log	Energy: -501758.6133696
C          5.82398       -0.61365        0.13181
C          4.33690       -0.90466        0.09245
O          3.75889        0.42646       -0.14262
C          2.39688        0.57480       -0.06057
C          1.96583        1.86637       -0.02565
C          0.56042        2.19065       -0.00127
C         -0.33733        1.17620       -0.00519
C          0.01290       -0.23578       -0.03232
C         -0.94878       -1.19680       -0.03763
C         -2.33960       -0.80519       -0.01134
C         -3.41228       -1.72630       -0.01154
C         -4.72271       -1.27344        0.01775
C         -5.00381        0.10986        0.04847
C         -3.97939        1.04416        0.04892
C         -2.65163        0.57061        0.01847
O         -1.69158        1.55873        0.01988
C          1.45972       -0.58698       -0.05482
O          1.82195       -1.75054       -0.06173
H          6.14868       -0.08924       -0.77807
H          6.40491       -1.53883        0.21663
H          6.08483        0.03483        0.97852
H          4.03873       -1.55605       -0.74791
H          3.94356       -1.30543        1.04064
H          2.68583        2.68626       -0.02430
H          0.25883        3.23456        0.02026
H         -0.68941       -2.26180       -0.06046
H         -3.19517       -2.79548       -0.03571
H         -5.54797       -1.98423        0.01729
H         -6.04357        0.44296        0.07211
H         -4.16989        2.11613        0.07162
