30
70541151.log	Energy: -429336.1216978
C         -2.34384       -0.50218        1.46102
C         -2.17291        0.93674        0.97051
C         -1.46028        0.99589       -0.39970
C         -2.08965        0.01534       -1.41679
N         -2.32733       -1.35369       -0.86616
C         -3.09467       -1.34130        0.41727
C          0.00794        0.83644       -0.22921
C          0.86446       -0.19744       -0.13520
C          0.74376       -1.63980       -0.18746
C          1.83907       -2.41687       -0.04812
C          3.17238       -1.85161        0.15288
C          3.38897       -0.51985        0.21197
C          2.26523        0.39034        0.07492
N          2.26322        1.70207        0.10852
C          0.86889        2.13212       -0.07950
O          0.48199        3.26106       -0.11368
H         -2.88708       -0.52003        2.42352
H         -1.34879       -0.95285        1.65588
H         -3.16182        1.42731        0.88173
H         -1.60857        1.53130        1.71526
H         -1.63032        2.03338       -0.81464
H         -1.40281       -0.10527       -2.28571
H         -3.02451        0.47963       -1.80337
H         -2.85097       -1.89838       -1.56366
H         -3.17472       -2.39577        0.76200
H         -4.13141       -0.95841        0.29971
H         -0.26264       -2.05226       -0.34494
H          1.76984       -3.50414       -0.08183
H          3.99582       -2.56218        0.25378
H          4.37475       -0.07637        0.35973
