23
933563.log	Energy: -616065.2116549
C          2.06830        2.15938       -0.44399
C          0.71765        1.57130       -0.23478
C          0.48436        0.21757       -0.27833
C         -0.87900       -0.28358       -0.13022
N         -1.29916       -1.53963       -0.20737
S         -2.98467       -1.55090        0.03532
N         -3.17553        0.12701        0.23755
C         -1.98330        0.69596        0.12745
C         -1.65804        2.10080        0.21286
C         -0.37556        2.49679        0.03494
N          1.49690       -0.76877       -0.51458
C          2.68140       -0.87614        0.24995
O          3.01325       -0.03485        1.06179
C          3.50149       -2.09293       -0.07644
H          2.70494        1.98526        0.45066
H          2.05082        3.23885       -0.62898
H          2.59665        1.68809       -1.28577
H         -2.47129        2.79776        0.42008
H         -0.11333        3.55686        0.09343
H          1.17634       -1.58777       -1.04218
H          4.48240       -2.02566        0.42431
H          3.02719       -3.01744        0.28165
H          3.69587       -2.20799       -1.15051
